<?xml version="1.0"?>
<VTKFile type="StructuredGrid" version="0.1" byte_order="LittleEndian">
  <StructuredGrid WholeExtent="0 63 0 63 0 0">
    <Piece Extent="0 63 0 63 0 0">
      <CellData></CellData>
      <Points>
        <DataArray type="Float64" NumberOfComponents="3" format="ascii">
0.0132089802419528 0.00241666504788081 0
0.0286626634088749 0.00241666016885627 0
0.0441163465757971 0.00241665047698954 0
0.0595700297427192 0.00241663602517509 0
0.0750237129096413 0.00241661679696967 0
0.0904773960765635 0.00241659274535231 0
0.105931079243486 0.0024165638945286 0
0.121384762410408 0.00241653032685572 0
0.13683844557733 0.0024164921353354 0
0.152292128744252 0.00241644938367711 0
0.167745811911174 0.00241640216008408 0
0.183199495078096 0.00241635064930655 0
0.198653178245018 0.00241629511624519 0
0.214106861411941 0.00241623587135866 0
0.229560544578863 0.00241617323764957 0
0.245014227745785 0.00241610759643081 0
0.260467910912707 0.00241603942402887 0
0.275921594079629 0.00241596932367932 0
0.291375277246551 0.0024158979786321 0
0.306828960413473 0.00241582613031073 0
0.322282643580395 0.00241575457947393 0
0.337736326747318 0.00241568420400503 0
0.35319000991424 0.00241561595760349 0
0.368643693081162 0.002415550830388 0
0.384097376248084 0.00241548982590733 0
0.399551059415006 0.00241543393109348 0
0.415004742581928 0.00241538408861582 0
0.43045842574885 0.00241534113119876 0
0.445912108915772 0.00241530582945337 0
0.461365792082695 0.0024152788367541 0
0.476819475249617 0.00241526069861452 0
0.492273158416539 0.00241525178900427 0
0.507726841583461 0.00241525227325494 0
0.523180524750383 0.00241526212857956 0
0.538634207917305 0.00241528116679638 0
0.554087891084227 0.00241530906560196 0
0.56954157425115 0.0024153452867882 0
0.584995257418072 0.00241538912532591 0
0.600448940584994 0.00241543975199632 0
0.615902623751916 0.00241549631556657 0
0.631356306918838 0.00241555791277781 0
0.64680999008576 0.00241562359249759 0
0.662263673252682 0.00241569232104071 0
0.677717356419604 0.00241576308735793 0
0.693171039586527 0.00241583495040541 0
0.708624722753449 0.00241590706709532 0
0.724078405920371 0.00241597863849129 0
0.739532089087293 0.00241604891381361 0
0.754985772254215 0.00241611722789102 0
0.770439455421137 0.00241618300360425 0
0.785893138588059 0.00241624576002393 0
0.801346821754982 0.00241630506436325 0
0.816800504921904 0.00241636058722392 0
0.832254188088826 0.00241641204716157 0
0.847707871255748 0.00241645923507829 0
0.86316155442267 0.00241650197537182 0
0.878615237589592 0.00241654012022293 0
0.894068920756514 0.00241657357786754 0
0.909522603923436 0.00241660231064985 0
0.924976287090359 0.00241662630618329 0
0.940429970257281 0.00241664554366349 0
0.955883653424203 0.00241665998643674 0
0.971337336591125 0.00241666960492051 0
0.986791019758047 0.00241667440031486 0
0.0132089802419528 0.0182142724606259 0
0.0286626634088749 0.0182142578235523 0
0.0441163465757971 0.0182142287479521 0
0.0595700297427192 0.0182141853925088 0
0.0750237129096413 0.0182141277078925 0
0.0904773960765635 0.0182140555530404 0
0.105931079243486 0.0182139690005693 0
0.121384762410408 0.0182138682975507 0
0.13683844557733 0.0182137537229897 0
0.152292128744252 0.0182136254680148 0
0.167745811911174 0.0182134837972357 0
0.183199495078096 0.0182133292649032 0
0.198653178245018 0.0182131626657191 0
0.214106861411941 0.0182129849310595 0
0.229560544578863 0.0182127970299322 0
0.245014227745785 0.0182126001062759 0
0.260467910912707 0.0182123955890701 0
0.275921594079629 0.0182121852880215 0
0.291375277246551 0.0182119712528798 0
0.306828960413473 0.0182117557079157 0
0.322282643580395 0.0182115410554053 0
0.337736326747318 0.0182113299289986 0
0.35319000991424 0.018211125189794 0
0.368643693081162 0.0182109298081475 0
0.384097376248084 0.0182107467947055 0
0.399551059415006 0.0182105791102639 0
0.415004742581928 0.018210429582831 0
0.43045842574885 0.0182103007105798 0
0.445912108915772 0.0182101948053436 0
0.461365792082695 0.0182101138272458 0
0.476819475249617 0.0182100594128271 0
0.492273158416539 0.0182100326839963 0
0.507726841583461 0.0182100341367483 0
0.523180524750383 0.0182100637027222 0
0.538634207917305 0.0182101208173726 0
0.554087891084227 0.0182102045137894 0
0.56954157425115 0.0182103131773481 0
0.584995257418072 0.0182104446929612 0
0.600448940584994 0.0182105965729725 0
0.615902623751916 0.0182107662636832 0
0.631356306918838 0.0182109510553169 0
0.64680999008576 0.0182111480944763 0
0.662263673252682 0.0182113542801056 0
0.677717356419604 0.0182115665790573 0
0.693171039586527 0.0182117821681997 0
0.708624722753449 0.0182119985182695 0
0.724078405920371 0.0182122132324574 0
0.739532089087293 0.0182124240584243 0
0.754985772254215 0.0182126290006565 0
0.770439455421137 0.0182128263277962 0
0.785893138588059 0.0182130145970553 0
0.801346821754982 0.0182131925100733 0
0.816800504921904 0.0182133590786553 0
0.832254188088826 0.0182135134584682 0
0.847707871255748 0.0182136550222184 0
0.86316155442267 0.018213783243099 0
0.878615237589592 0.0182138976776523 0
0.894068920756514 0.0182139980505861 0
0.909522603923436 0.0182140842489331 0
0.924976287090359 0.0182141562355334 0
0.940429970257281 0.018214213947974 0
0.955883653424203 0.0182142572762937 0
0.971337336591125 0.018214286131745 0
0.986791019758047 0.0182143005179281 0
0.0132089802419528 0.034011879873371 0
0.0286626634088749 0.0340118554782484 0
0.0441163465757971 0.0340118070189147 0
0.0595700297427192 0.0340117347598424 0
0.0750237129096413 0.0340116386188153 0
0.0904773960765635 0.0340115183607286 0
0.105931079243486 0.03401137410661 0
0.121384762410408 0.0340112062682456 0
0.13683844557733 0.034011015310644 0
0.152292128744252 0.0340108015523526 0
0.167745811911174 0.0340105654343874 0
0.183199495078096 0.0340103078804998 0
0.198653178245018 0.0340100302151929 0
0.214106861411941 0.0340097339907603 0
0.229560544578863 0.0340094208222148 0
0.245014227745785 0.0340090926161211 0
0.260467910912707 0.0340087517541113 0
0.275921594079629 0.0340084012523636 0
0.291375277246551 0.0340080445271275 0
0.306828960413473 0.0340076852855206 0
0.322282643580395 0.0340073275313366 0
0.337736326747318 0.0340069756539921 0
0.35319000991424 0.0340066344219845 0
0.368643693081162 0.034006308785907 0
0.384097376248084 0.0340060037635037 0
0.399551059415006 0.0340057242894344 0
0.415004742581928 0.0340054750770461 0
0.43045842574885 0.0340052602899608 0
0.445912108915772 0.0340050837812339 0
0.461365792082695 0.0340049488177375 0
0.476819475249617 0.0340048581270396 0
0.492273158416539 0.0340048135789884 0
0.507726841583461 0.0340048160002417 0
0.523180524750383 0.0340048652768648 0
0.538634207917305 0.0340049604679489 0
0.554087891084227 0.0340050999619768 0
0.56954157425115 0.034005281067908 0
0.584995257418072 0.0340055002605965 0
0.600448940584994 0.0340057533939486 0
0.615902623751916 0.0340060362117998 0
0.631356306918838 0.034006344197856 0
0.64680999008576 0.0340066725964549 0
0.662263673252682 0.0340070162391705 0
0.677717356419604 0.0340073700707567 0
0.693171039586527 0.0340077293859941 0
0.708624722753449 0.0340080899694436 0
0.724078405920371 0.0340084478264235 0
0.739532089087293 0.0340087992030351 0
0.754985772254215 0.0340091407734221 0
0.770439455421137 0.0340094696519882 0
0.785893138588059 0.0340097834340866 0
0.801346821754982 0.0340100799557833 0
0.816800504921904 0.0340103575700866 0
0.832254188088826 0.0340106148697748 0
0.847707871255748 0.0340108508093584 0
0.86316155442267 0.0340110645108261 0
0.878615237589592 0.0340112552350817 0
0.894068920756514 0.0340114225233047 0
0.909522603923436 0.0340115661872163 0
0.924976287090359 0.0340116861648834 0
0.940429970257281 0.0340117823522844 0
0.955883653424203 0.0340118545661507 0
0.971337336591125 0.0340119026585696 0
0.986791019758047 0.0340119266355413 0
0.0132089802419528 0.0498094872861161 0
0.0286626634088749 0.0498094531329444 0
0.0441163465757971 0.0498093852898773 0
0.0595700297427192 0.0498092841271761 0
0.0750237129096413 0.0498091495297382 0
0.0904773960765635 0.0498089811684167 0
0.105931079243486 0.0498087792126507 0
0.121384762410408 0.0498085442389406 0
0.13683844557733 0.0498082768982983 0
0.152292128744252 0.0498079776366903 0
0.167745811911174 0.049807647071539 0
0.183199495078096 0.0498072864960964 0
0.198653178245018 0.0498068977646668 0
0.214106861411941 0.0498064830504611 0
0.229560544578863 0.0498060446144975 0
0.245014227745785 0.0498055851259662 0
0.260467910912707 0.0498051079191526 0
0.275921594079629 0.0498046172167057 0
0.291375277246551 0.0498041178013752 0
0.306828960413473 0.0498036148631256 0
0.322282643580395 0.049803114007268 0
0.337736326747318 0.0498026213789857 0
0.35319000991424 0.049802143654175 0
0.368643693081162 0.0498016877636665 0
0.384097376248084 0.0498012607323018 0
0.399551059415006 0.0498008694686049 0
0.415004742581928 0.0498005205712612 0
0.43045842574885 0.0498002198693418 0
0.445912108915772 0.0497999727571241 0
0.461365792082695 0.0497997838082292 0
0.476819475249617 0.0497996568412521 0
0.492273158416539 0.0497995944739804 0
0.507726841583461 0.0497995978637351 0
0.523180524750383 0.0497996668510074 0
0.538634207917305 0.0497998001185252 0
0.554087891084227 0.0497999954101642 0
0.56954157425115 0.0498002489584679 0
0.584995257418072 0.0498005558282318 0
0.600448940584994 0.0498009102149247 0
0.615902623751916 0.0498013061599165 0
0.631356306918838 0.0498017373403952 0
0.64680999008576 0.0498021970984336 0
0.662263673252682 0.0498026781982354 0
0.677717356419604 0.049803173562456 0
0.693171039586527 0.0498036766037884 0
0.708624722753449 0.0498041814206177 0
0.724078405920371 0.0498046824203895 0
0.739532089087293 0.0498051743476458 0
0.754985772254215 0.0498056525461876 0
0.770439455421137 0.0498061129761802 0
0.785893138588059 0.049806552271118 0
0.801346821754982 0.0498069674014933 0
0.816800504921904 0.0498073560615179 0
0.832254188088826 0.0498077162810814 0
0.847707871255748 0.0498080465964985 0
[...]
      <PointData Scalars="PressureField">
        <DataArray type="Float64" Name="PressureField" format="ascii">
4.06082517845312 
4.06037647876199 
4.05948896338348 
4.05816335243538 
4.05637639832535 
4.05415861020237 
4.05149397804926 
4.04838653307055 
4.04484596363626 
4.04088051219466 
4.03653122396317 
4.03173319608825 
4.02659605710496 
4.02104757365478 
4.01525033253061 
4.00904903906998 
4.00279375435345 
3.99611368094858 
3.98959276164634 
3.9826464311286 
3.97618520688701 
3.9693105380084 
3.96316442858099 
3.95673653384014 
3.95127726949744 
3.94570874886313 
3.94124579559782 
3.93692645772469 
3.9337149944527 
3.93102691450291 
3.92928375359295 
3.92842658101326 
3.9282630301473 
3.92931248750278 
3.93076474645238 
3.93365074259804 
3.93657555385731 
3.94102431984668 
3.94528830118982 
3.95093579219517 
3.95625666206661 
3.96272438754701 
3.96877030869137 
3.97561606219227 
3.98208443925922 
3.98895192263752 
3.99548988885032 
4.00209622143497 
4.00838843562181 
4.01450130724788 
4.02034591518346 
4.02579136187607 
4.03098236936459 
4.03572600993383 
4.04013569234078 
4.04404125200671 
4.04760696258097 
4.05068812537426 
4.05336579249214 
4.05556317373133 
4.05735274378762 
4.05866868443802 
4.05957521941301 
4.06001179667126 
4.06126548284663 
4.06082444967438 
4.05993491317364 
4.05860803220514 
4.05682187645054 
4.05459871365072 
4.0519239223277 
4.04882141408681 
4.04528744406554 
4.0413130203507 
4.03688524267776 
4.03215724013975 
4.02686922216143 
4.02146953421221 
4.01541826368824 
4.00948448703934 
4.00273904523583 
3.99652803365728 
3.98926441589527 
3.98310699614023 
3.97557343572202 
3.96965704107444 
3.9623202859176 
3.95696092132923 
3.95023677959602 
3.94566527566736 
3.94014951865698 
3.93656378403531 
3.93270371993688 
3.93029088010283 
3.92847626369175 
3.92734335505922 
3.9277417402962 
3.92795829124259 
3.93054625978484 
3.9321301147254 
3.93665755172327 
3.93954841063363 
3.94557497222827 
3.94963523655767 
3.95667478960786 
3.96170989722842 
3.96920213174966 
3.97500125645479 
3.98249061647297 
3.98870386672262 
3.99581015225121 
4.00213946442883 
4.00869281527869 
4.01480198608283 
4.02064768462208 
4.02625614729297 
4.03129737774977 
4.03618838482057 
4.04048937097673 
4.04454611149962 
4.0480015671676 
4.05116788932074 
4.05376798005888 
4.05603276959116 
4.05777705837274 
4.05913183520071 
4.06000816316241 
4.06046130090632 
4.06215970860092 
4.06170755305226 
4.06082649116514 
4.05948256153191 
4.05772082108337 
4.05547634536062 
4.05283799516056 
4.0496786615142 
4.04617155494488 
4.04209770507871 
4.03780839754175 
4.03279855155255 
4.02779773754213 
4.02189240007099 
4.01631527981894 
4.00957551662149 
4.00365945071332 
3.99616079928119 
3.99017848490036 
3.9821456958816 
3.97639143781147 
3.96822643762477 
3.96282658520696 
3.9551188552003 
3.9503134999747 
3.94364526195839 
3.93958342782473 
3.93458071438086 
3.93142139294295 
3.92854749974987 
3.92647744324889 
3.92605267838632 
3.92516710683645 
3.92722824546238 
3.92761462877222 
3.93199430342884 
3.93360190475141 
3.93991154961727 
3.9427042214375 
3.95039267092106 
3.95425032735501 
3.96263846757564 
3.96751394716415 
3.97593371930101 
3.98149351942384 
3.98956210300933 
3.99557418909374 
4.00287925589923 
4.00897615222044 
4.0154807938776 
4.0212984766117 
4.02689228355974 
4.03214583408375 
4.0369101752375 
4.04142543892305 
4.04530120980463 
4.04895537093429 
4.05197392338294 
4.05471879472459 
4.0568759491987 
4.05871273681344 
4.05999060900417 
4.06091751150849 
4.06134259419634 
4.06349371320017 
4.06306000890013 
4.06214179555071 
4.06085326235256 
4.05901050745882 
4.05686816955988 
4.05408855784342 
4.05108591179416 
4.04736272457764 
4.04352320741843 
4.03880675588507 
4.03426657272734 
4.02852874256764 
4.0233667936868 
4.01664458993409 
4.01104818749168 
4.00338695892737 
3.99763522321875 
3.98918206291304 
3.98350066007272 
3.97463982752926 
3.96915139741403 
3.96055758550404 
3.95535488591713 
3.94766675239074 
3.94294076273079 
3.93689046406966 
3.93277971052776 
3.92892961566484 
3.92573635465658 
3.92443046808848 
3.92234715065963 
3.92375142858787 
3.92292517587826 
3.92694582692184 
3.92742235249667 
3.93375039906451 
3.93542618422037 
3.94358542629562 
3.94637532654906 
3.95564204484827 
3.95945054735153 
3.96908480999653 
3.97371823377252 
3.98313303998709 
3.98840402218578 
3.99702269298696 
4.00270277715033 
4.01028930894767 
4.01600189609749 
4.02248666648437 
4.02791339055437 
4.03334074044771 
4.03817503309337 
4.04261582954988 
4.04667350977686 
4.05017482719964 
4.05337446556878 
4.05597078863621 
4.05826339332797 
4.05998674212809 
4.0613535579886 
4.0622216800918 
4.06267533757116 
4.06526888623318 
4.06479486226385 
4.06396921776591 
4.06254613257263 
4.06089565909431 
4.05850500448661 
4.05603504696643 
4.05263670816103 
4.04935773350057 
4.04490574190936 
4.04089623449821 
4.0353101664122 
4.03068411129506 
4.02395974245348 
4.01882329588626 
4.01100375700095 
4.0055467765406 
3.99674171500526 
3.99113464881225 
3.98172597944885 
3.97606983118838 
3.96671877462828 
3.96102163350189 
3.95247744875103 
3.94683676096857 
3.93987375587005 
3.93456644428644 
3.92983120743738 
3.92515760887621 
3.92309133537206 
3.91949654435015 
3.92023505874511 
3.91802339733322 
3.92156997254471 
3.92083329060695 
3.92697842249456 
3.92765803913675 
3.93600129619274 
3.93787763874375 
3.94785389736321 
3.95076573488582 
3.96154318655631 
3.96529551386998 
3.97621050009285 
3.98057561420594 
3.9909050720272 
3.99578915583268 
4.0050253541922 
4.01019778548151 
4.01807850200697 
4.02329295396292 
4.02979520126439 
4.03468619588158 
4.03994788356257 
4.04427026302673 
4.04841402257688 
4.05197514345444 
4.05509909010565 
4.05779890295724 
4.05999858739109 
4.06181156916243 
4.06310002880896 
4.06401943937196 
4.06443905974335 
4.06747037134126 
4.0670904584525 
4.06609678645928 
4.06493569870811 
4.06292965471311 
4.0610046086778 
4.05794855391378 
4.05525629684615 
4.05108029356335 
4.04765534172328 
4.04227990379724 
4.03821849558239 
4.03155371414408 
4.02696009605072 
4.01903897477683 
4.01396702878608 
4.0049109664821 
3.99945940326943 
3.98962920033278 
3.98378669869527 
3.97380629113761 
3.96755675144023 
3.95822373760211 
3.95160706468706 
3.94385417768135 
3.93709063887071 
3.93149900746768 
3.92515145970231 
3.92228155750825 
3.91684749312644 
3.91691348661945 
3.91295651641056 
3.91600294940216 
3.9137664363673 
3.91967744283516 
3.91919126140704 
3.92759377331929 
3.92864657642905 
3.93905778473082 
3.9412551321341 
3.95301978727965 
3.95607871655711 
3.96838183959155 
3.97198823955152 
3.98415859250306 
3.98816565867521 
3.99938015606635 
4.00373463032767 
4.01353063792225 
4.01812421887136 
4.02624242628836 
4.0308344998021 
4.03733595692265 
4.04163069157461 
4.04669633777136 
4.0504459795624 
4.05427589636068 
4.05728837463766 
4.06004397898023 
4.06223616249704 
4.06402027414775 
4.06533987832355 
4.06622277114439 
4.06666193523184 
4.0701668895993 
4.06964283108349 
4.06894541382689 
4.06735815246472 
4.06595663029255 
4.06327363770288 
4.06117903016984 
4.05730451744558 
4.05453287417799 
4.04937023268258 
4.04596292515716 
4.03941023457193 
4.03545384959386 
4.02747740040653 
4.02290440923536 
4.01368381120579 
4.00848944632094 
3.99833981944998 
3.99242132491801 
3.9819316433135 
3.97516583270484 
3.96517509927044 
3.9575509216895 
3.94893423445226 
3.94071596038089 
3.93426451338125 
3.92602297196617 
3.92223224086693 
3.91473623599023 
3.91400072433807 
3.9079230140886 
3.9104091553181 
3.9062654136138 
3.91191592760446 
3.90983031843253 
3.91838535010249 
3.9182529246078 
3.92914498089636 
3.93061810965545 
3.94322462233592 
3.9457673482728 
3.95937447438514 
3.96252505004884 
3.97636113651376 
3.97972962802941 
3.99304168699835 
3.99658071877015 
4.00861419468999 
4.01232123442955 
4.02258505221401 
4.02647374007963 
4.03474700812349 
4.03864708851349 
4.04507521733143 
4.04871299973728 
4.05354788965857 
4.05666494353557 
4.06017542055258 
4.0626163215543 
4.06498722379695 
4.0666493440323 
4.06802024998666 
4.0688642492171 
4.06930748817211 
4.07320132062631 
4.07290227984773 
4.07177882856486 
4.07087386503742 
4.06858132679415 
4.06707084127556 
4.06353868828417 
4.0614318397966 
4.05654873768663 
4.05384895726101 
4.04750049026658 
4.04419371844612 
4.03633380385601 
4.03235560954619 
4.02309914179653 
4.01828890522803 
4.0079309586096 
4.00208538799131 
3.99119903226248 
3.98405085980339 
3.97346235974039 
3.96492616438763 
3.95552272189364 
3.94587888542616 
3.93837215361657 
3.92825136746728 
3.92331194298292 
3.91364284692772 
3.91176111752235 
3.90338829211171 
3.90497696315706 
3.89854721835175 
3.90378399527637 
3.89965041366253 
3.90833081280353 
3.90652087621943 
3.91808738187331 
3.91843972551542 
3.93206433742868 
3.93399092097058 
3.94892306798425 
3.95168808316883 
3.96722209734818 
3.97029292694031 
3.9855934928368 
3.98860980672618 
4.00293293302227 
4.00587523469754 
4.0185633779027 
4.0215526350756 
4.03209769931867 
4.03521760237628 
4.04354545031672 
4.04667529875848 
4.05295131712037 
4.05587549905083 
4.06042920444056 
4.06291326380214 
4.06605400206067 
4.06792910823399 
4.06990369485233 
4.07104797313597 
4.07201124703297 
4.07238820346135 
4.07680517242534 
4.07619607608871 
4.07572322758803 
4.07388393773077 
4.07291010632036 
4.06978453378097 
4.06831722195982 
4.06376473914384 
4.06178333941434 
4.0557168680308 
4.05314111583598 
4.0454763280489 
4.04220632508801 
4.03299731618678 
4.02874993361154 
4.0183290837852 
4.01275649386934 
4.00158951324327 
3.99434353220686 
3.98320860333376 
3.97402177399641 
3.96377116555808 
3.95289993641714 
3.94419773327952 
3.93235575201823 
3.92597050679196 
3.91407316899782 
3.9106657856315 
3.89978696200433 
3.90009111764319 
3.89105734108981 
3.89547676725685 
3.88888163859497 
3.8974447230998 
3.89353672564697 
3.90571371711545 
3.90441985390145 
3.91934830553481 
3.92014491734739 
3.93682882924236 
3.9390511648216 
3.95651579632475 
3.95935149560659 
3.97671957311337 
3.97954893735482 
3.99615903211349 
3.99865028359367 
4.01382430029657 
4.01603180749899 
4.02913509153206 
4.03133889309379 
4.04199180387456 
4.04429775808919 
4.05250113052904 
4.05485559731085 
4.06087836764922 
4.06307691013517 
4.06730177520169 
4.06913477367018 
4.07190872325692 
4.07319738087845 
4.07476403104258 
4.07544129244703 
4.07594604840445 
4.0806383799692 
4.08047669885583 
4.0791566142487 
4.07865681641995 
4.07597091694684 
4.07510343223232 
4.07096393011718 
4.06968868157733 
4.06398252937711 
4.06218822770183 
4.05484888349669 
4.05231099926585 
4.04337218533787 
4.03978343658636 
4.02947413192031 
4.02437265380647 
4.01310653429295 
4.00599700992247 
3.99443533515594 
3.98496273846065 
3.9738740794807 
3.96211739072067 
3.95215444054334 
3.93874517392367 
3.93072433854082 
3.91659164481075 
3.91142462312738 
3.89771959398771 
3.89638998101331 
3.88424336510658 
3.88744293550833 
3.87786380070241 
3.88582385384281 
3.87939228130496 
3.89180078969008 
3.88860069872692 
3.90461067676481 
3.90408066477067 
3.92269014882825 
3.92398108878738 
3.9439069049882 
3.94626799845113 
3.96620921284305 
3.96889449999442 
3.98801436463974 
3.99036488536728 
4.00809661611926 
4.00985815261906 
4.02558971573536 
4.026996764554 
4.04025157180605 
4.04159507116092 
4.05213234548478 
4.05360541427985 
4.06154206996852 
4.06310159109743 
4.06877926864846 
4.07027047920014 
4.07409229287167 
4.07531170474702 
4.07766110198721 
4.07843171447532 
4.07955429279873 
4.07982335650422 
4.08512636038411 
4.08442200361211 
4.08427342813682 
4.08209513510905 
4.08176724838237 
4.0780871108127 
4.07746889622023 
4.07221617035551 
4.07115842172212 
4.06427727384745 
4.06253053611392 
4.05398514560433 
4.0512052715624 
4.04114059298806 
4.03677714276733 
4.02556839628222 
4.01895002277418 
4.00712824513077 
3.9977728876397 
3.98593412126215 
3.97370471565876 
3.96252720799088 
3.94786836044038 
3.93811968377307 
3.92183540648418 
3.91469111524637 
3.89790775254442 
3.89462745549782 
3.87883146892466 
3.88040854203053 
3.8670774712853 
3.87399695568615 
3.86431471109254 
3.87644443536221 
3.87087988887909 
3.8875446153848 
3.88558778642927 
3.90570908784872 
3.90628486870649 
3.92874838199626 
3.93051779065903 
3.95361619347517 
3.95597251786168 
3.97825620638127 
3.98046872089071 
4.00110999125497 
4.00270008596585 
4.02123168872177 
4.02212908469575 
4.03809109663094 
4.03857900826755 
4.05170801145227 
4.05215949680298 
4.06236286824071 
4.06301511901798 
4.07050860176165 
4.0713307076061 
4.07653868077302 
4.07738996300646 
4.08073318514667 
4.08142603072077 
4.08328143523017 
4.08364877968871 
4.08425514528855 
4.08969220179642 
4.08971941166931 
4.08816565824358 
4.0882156743707 
4.08508114456052 
4.08506306379353 
4.08033492694423 
4.07999876555253 
4.07365677955991 
4.07271638257923 
4.06472576282643 
4.06279925900803 
4.05321529604494 
4.04972773530054 
4.03878710655244 
4.03299785770938 
4.02109917889755 
4.01231518117952 
3.99993192276933 
3.98778562465087 
3.9754839781476 
3.96004111566224 
3.94862236605459 
3.93046034587991 
3.92114765400028 
3.9012819896498 
3.89568792933689 
3.87584810710649 
3.8751370303118 
3.85743555714341 
3.86258165140403 
3.84880905577404 
3.86001351439826 
3.85129104519726 
3.86812464787065 
3.86419393443937 
3.88561017776373 
3.88550152676299 
3.91001319550749 
3.91172599550311 
3.93805325063556 
3.94026806841493 
3.96630014932986 
3.96831063658144 
3.99267794214337 
3.994046333583 
4.01589714529675 
4.01644197132568 
4.03538316826455 
4.03521347420154 
4.05108707464344 
4.05059254634849 
4.0632967866734 
4.06287514270914 
4.07252587061835 
4.07238796457804 
4.0793103161226 
4.07945857356077 
4.08410773628826 
4.08439236564251 
4.08721179737634 
4.08745060938976 
4.08878667841051 
4.08887942364236 
4.09503025903318 
4.09418984369354 
4.09446035094091 
4.09195109919809 
4.09238183192591 
4.08825016603332 
4.08855677550847 
4.08284067943852 
4.08268387192473 
4.07538144830891 
4.07435599492077 
4.0654124588336 
4.0629639138159 
4.05248412970302 
4.04782478220268 
4.0361068092502 
4.02832362999099 
4.01569702625694 
4.00415593722808 
3.9910284394083 
3.97544033344397 
3.96250798682326 
3.94298847069415 
3.93148753770785 
3.90895128785298 
3.90050864864419 
3.87653064927402 
3.87281438613587 
3.85025131163333 
3.8525023479656 
3.83388839774836 
3.84312155023124 
3.83019477790213 
3.84649756852657 
3.83968935554599 
3.8621399117425 
3.86058675103122 
3.88735611613146 
3.88907646927883 
3.91846516971284 
3.92121145137447 
3.95114236680538 
3.95348742665348 
3.98210380577873 
3.98339776753236 
4.00930210475155 
4.00951382884743 
4.0320278744324 
4.03128452454637 
4.05023679759834 
4.04885929768395 
4.06428809478302 
4.06277714358161 
4.07480792734055 
4.07353789775087 
4.08245559138749 
4.08161943713185 
4.08782678731517 
4.08739783859128 
4.09143253207902 
4.09124737281538 
4.09348386973482 
4.09341637481263 
4.09414493479125 
4.1001946321022 
4.10048182160371 
4.09868753116717 
4.09939757704273 
4.09593614748325 
4.09676610046946 
4.09175372306636 
4.09230480292191 
4.08576539233736 
4.08563664964289 
4.07748892090405 
4.07613264878979 
4.066366762031 
4.06301389102144 
4.05175987857671 
4.04538483344913 
4.03287508540985 
4.02250286756378 
4.00893049928866 
3.99398412650105 
3.97980905167943 
3.95982963914132 
3.9462327022867 
3.92155603248424 
3.91006570188283 
3.88235746666717 
3.87492290868609 
3.84691133419748 
3.84545605038302 
3.82078780140592 
3.82693545563989 
3.80840882200298 
3.82308991361162 
3.8121362996497 
3.83486961404213 
3.83101058123327 
3.85997780730585 
3.86126134119605 
3.89416316283787 
3.89762382393344 
3.93173373883875 
3.93519106070309 
3.96838626891368 
3.97032982225031 
4.00085640533021 
4.0010297594195 
4.02780661879234 
4.02651942372757 
4.04911356115566 
4.04690227279793 
4.06538152124354 
4.06277599364478 
4.07738734463111 
4.0748860958462 
4.0860196727079 
4.08396470834401 
4.09202968036094 
4.09053199122066 
4.09602740749411 
4.09507427376277 
4.09846004290146 
4.09795074259918 
4.09954433391231 
4.099394267041 
4.10629180816218 
4.10533776379271 
4.10609985797796 
4.10338116936241 
4.10456213681339 
4.10027334010443 
4.10145182293781 
4.09572392232466 
4.0964162461152 
4.0891773223232 
4.08892925477469 
4.08007009987289 
4.07814017487091 
4.06763185238244 
4.06298708156596 
4.0509119377377 
4.04233522212852 
4.02876812220293 
4.01525415068952 
4.00029450603689 
3.98096374112657 
3.96551478113456 
3.93986605670014 
3.92539027165722 
3.89453182706759 
3.88286362492237 
3.84953073267157 
3.84335399735781 
3.81128766003384 
3.81338414487585 
3.78725083414584 
3.79905281598708 
3.78208234980196 
3.80379137027193 
3.79660763377674 
3.8269347662757 
3.82735102427849 
3.86359985749751 
3.86800978987511 
3.90705092371142 
3.91204148474676 
3.95060159207671 
3.95386105383022 
3.98975664534056 
3.99053240411996 
4.02221389042049 
4.0207097854473 
4.04760373167265 
4.04457865229931 
4.06660090752362 
4.06283975786094 
4.08039067930286 
4.07656931873677 
4.09007462078963 
4.08668109777441 
4.09671087527709 
4.09398658652474 
4.10110446778514 
4.09911621088555 
4.10380007224201 
4.10253083780294 
4.10517588856441 
4.10454965518927 
4.10541421696175 
4.11196677450107 
4.11247613926066 
4.11060321076033 
4.11191066639755 
4.10842146604507 
4.11003287201317 
4.10515255062777 
4.10657885345992 
4.10032131768775 
4.10109961198407 
4.09329572128872 
4.09278879110035 
4.08329638769279 
4.08049466113333 
4.06929230698727 
4.06291908009596 
4.04980985037701 
4.03856466576926 
4.02343256090598 
4.00589773548469 
3.98912852224384 
3.96407477530357 
3.94685189241437 
3.91416008566343 
3.89824166583914 
3.86000761769163 
3.84833746736962 
3.80850965668916 
3.80494054636786 
3.76907375549639 
3.77632345867125 
3.75068182271413 
3.76975132647277 
3.75710223652192 
3.78744096273028 
3.78622077467418 
3.82533708044788 
3.83097243989116 
3.87497652704663 
3.88238120037928 
3.92728484072119 
3.93277592499378 
3.97510523475682 
3.97713928044501 
4.01479204459854 
4.01352311717268 
4.04544885694617 
4.04181052072783 
4.06800515696751 
4.06305475059886 
4.0839657510922 
4.07863394242243 
4.09485935383537 
4.08993146074445 
4.10208948497751 
4.09798221203711 
4.10674689785804 
4.1035259921379 
4.10959870929214 
4.10733514069631 
4.11114015835436 
4.10972498113508 
4.11160599947417 
4.11112412584879 
4.11858214992144 
4.11768577445254 
4.11879682208963 
4.1161670760792 
4.11799204053032 
4.11399510295221 
4.11597888546138 
4.11073184849588 
4.11236964878923 
4.10573894789977 
4.10655204325692 
4.09827285257524 
4.09736155107319 
4.08733092212908 
4.0833793170988 
4.07131660537776 
4.06288475632411 
4.0482864944269 
4.03369391922687 
4.01643905394118 
3.99365423727256 
3.9742962650445 
3.94192008130451 
3.92197924123151 
3.88044462207241 
3.86286510097656 
3.81532317835736 
3.80453601654366 
3.75781329732021 
3.75793484233354 
3.72061882627219 
3.73453030082281 
3.71303692553176 
3.74163159447213 
3.73650969427204 
3.77759006914961 
3.78421432952175 
3.83318582900563 
3.84431078998101 
3.89607950247826 
3.90534692867309 
3.95532050888721 
3.95985730425973 
4.00474049959338 
4.00430569412224 
4.04246552129923 
4.0384563986595 
4.06955588662638 
4.06349465991601 
4.08823173868881 
4.08131929394012 
4.10058534581613 
4.09386786118178 
4.10843258311939 
4.10256669625771 
4.11317423805364 
4.10856120734281 
4.11597120990576 
4.11251539061034 
4.11748668920559 
4.11512796540216 
4.11801571388303 
4.1167878771501 
4.11775156918352 
4.12462683798812 
4.12530261711061 
4.12358948382717 
4.12535386495227 
4.12225526585956 
4.12454473176043 
4.12030835930765 
4.12262973983011 
4.11720837574497 
4.11912709181807 
4.11221346702535 
4.11306045746226 
4.10447216925567 
4.10296327358144 
4.09239919218657 
4.08710106292366 
4.0737984857014 
4.06294186289329 
4.04621143566363 
4.0272802992731 
4.00700583114722 
3.97729174809937 