<?xml version="1.0"?>
<VTKFile type="StructuredGrid" version="0.1" byte_order="LittleEndian">
  <StructuredGrid WholeExtent="0 127 0 127 0 0">
    <Piece Extent="0 127 0 127 0 0">
      <CellData></CellData>
      <Points>
        <DataArray type="Float64" NumberOfComponents="3" format="ascii">
0.00662726286083776 0.00118539041463102 0
0.0143969122646041 0.00118539014009297 0
0.0221665616683704 0.00118538958453614 0
0.0299362110721368 0.00118538874111526 0
0.0377058604759031 0.00118538760854695 0
0.0454755098796694 0.00118538619246714 0
0.0532451592834358 0.0011853844986503 0
0.0610148086872021 0.00118538252724671 0
0.0687844580909684 0.00118538027503348 0
0.0765541074947348 0.00118537774044834 0
0.0843237568985011 0.00118537492364212 0
0.0920934063022674 0.00118537182547612 0
0.0998630557060338 0.00118536844678092 0
0.1076327051098 0.00118536478835435 0
0.115402354513566 0.00118536085274487 0
0.123172003917333 0.00118535664615221 0
0.130941653321099 0.00118535217503241 0
0.138711302724865 0.00118534743921867 0
0.146480952128632 0.00118534243333374 0
0.154250601532398 0.00118533715480619 0
0.162020250936164 0.00118533160937387 0
0.169789900339931 0.00118532581072841 0
0.177559549743697 0.00118531976985075 0
0.185329199147463 0.00118531349015522 0
0.19309884855123 0.00118530697249277 0
0.200868497954996 0.00118530022246482 0
0.208638147358762 0.00118529325531773 0
0.216407796762529 0.00118528608590037 0
0.224177446166295 0.00118527872096091 0
0.231947095570061 0.00118527116600263 0
0.239716744973828 0.00118526343376153 0
0.247486394377594 0.00118525554399868 0
0.25525604378136 0.0011852475162785 0
0.263025693185127 0.00118523936453521 0
0.270795342588893 0.00118523110000287 0
0.278564991992659 0.00118522274031626 0
0.286334641396426 0.00118521431340113 0
0.294104290800192 0.00118520584909344 0
0.301873940203958 0.00118519737065943 0
0.309643589607725 0.00118518889474373 0
0.317413239011491 0.00118518044038772 0
0.325182888415257 0.00118517203529558 0
0.332952537819024 0.00118516371043956 0
0.34072218722279 0.00118515549136982 0
0.348491836626556 0.00118514740058687 0
0.356261486030323 0.00118513946514023 0
0.364031135434089 0.00118513172089814 0
0.371800784837856 0.00118512420571838 0
0.379570434241622 0.0011851169516701 0
0.387340083645388 0.00118510998254515 0
0.395109733049154 0.00118510332022178 0
0.402879382452921 0.00118509699341713 0
0.410649031856687 0.00118509103325277 0
0.418418681260454 0.00118508546822785 0
0.42618833066422 0.00118508032080195 0
0.433957980067986 0.00118507561160517 0
0.441727629471752 0.00118507136303638 0
0.449497278875519 0.00118506759647636 0
0.457266928279285 0.00118506433183469 0
0.465036577683052 0.00118506158540517 0
0.472806227086818 0.00118505936873424 0
0.480575876490584 0.00118505769248957 0
0.488345525894351 0.00118505656597245 0
0.496115175298117 0.0011850559950072 0
0.503884824701883 0.00118505598204059 0
0.511654474105649 0.00118505652471459 0
0.519424123509416 0.00118505761698371 0
0.527193772913182 0.0011850592530311 0
0.534963422316949 0.0011850614293895 0
0.542733071720715 0.00118506414147467 0
0.550502721124481 0.00118506737771713 0
0.558272370528248 0.00118507112010415 0
0.566042019932014 0.00118507534631277 0
0.57381166933578 0.0011850800350098 0
0.581581318739546 0.0011850851648575 0
0.589350968143313 0.00118509071132685 0
0.597120617547079 0.00118509664755599 0
0.604890266950846 0.0011851029445794 0
0.612659916354612 0.00118510957645166 0
0.620429565758378 0.00118511651923641 0
0.628199215162144 0.00118512374763267 0
0.635968864565911 0.00118513123238878 0
0.643738513969677 0.00118513894068663 0
0.651508163373444 0.00118514684125202 0
0.65927781277721 0.00118515490649792 0
0.667047462180976 0.00118516311050421 0
0.674817111584743 0.00118517142348642 0
0.682586760988509 0.00118517981279809 0
0.690356410392275 0.00118518824929338 0
0.698126059796041 0.00118519671128819 0
0.705895709199808 0.00118520518127118 0
0.713665358603574 0.00118521363783252 0
0.721435008007341 0.00118522205271 0
0.729204657411107 0.00118523039789159 0
0.736974306814873 0.00118523865226618 0
0.74474395621864 0.00118524679814255 0
0.752513605622406 0.00118525481688594 0
0.760283255026172 0.00118526268996317 0
0.768052904429938 0.00118527040269032 0
0.775822553833705 0.00118527794583296 0
0.783592203237471 0.00118528531014638 0
0.791361852641238 0.00118529248158431 0
0.799131502045004 0.00118529944409631 0
0.80690115144877 0.00118530618536384 0
0.814670800852537 0.00118531269897538 0
0.822440450256303 0.00118531898028264 0
0.830210099660069 0.00118532502287718 0
0.837979749063836 0.00118533081957705 0
0.845749398467602 0.00118533636404648 0
0.853519047871368 0.00118534164947935 0
0.861288697275135 0.00118534666765341 0
0.869058346678901 0.00118535141257594 0
0.876827996082667 0.0011853558832862 0
0.884597645486433 0.00118536008061663 0
0.8923672948902 0.00118536400393315 0
0.900136944293966 0.00118536765137436 0
0.907906593697733 0.00118537102269178 0
0.915676243101499 0.00118537411917786 0
0.923445892505265 0.00118537694005661 0
0.931215541909032 0.0011853794806235 0
0.938985191312798 0.00118538173558727 0
0.946754840716564 0.00118538370431337 0
0.954524490120331 0.00118538539227438 0
0.962294139524097 0.00118538680351503 0
0.970063788927863 0.00118538793698928 0
0.97783343833163 0.00118538878925994 0
0.985603087735396 0.00118538935734346 0
0.993372737139162 0.00118538964094961 0
0.00662726286083776 0.00904104756180226 0
0.0143969122646041 0.00904104673818811 0
0.0221665616683704 0.00904104507151761 0
0.0299362110721368 0.00904104254125497 0
0.0377058604759031 0.00904103914355006 0
0.0454755098796694 0.00904103489531062 0
0.0532451592834358 0.0090410298138601 0
0.0610148086872021 0.00904102389964932 0
0.0687844580909684 0.00904101714300964 0
0.0765541074947348 0.00904100953925421 0
0.0843237568985011 0.00904100108883554 0
0.0920934063022674 0.00904099179433755 0
0.0998630557060338 0.00904098165825196 0
0.1076327051098 0.00904097068297224 0
0.115402354513566 0.00904095887614381 0
0.123172003917333 0.00904094625636582 0
0.130941653321099 0.00904093284300642 0
0.138711302724865 0.0090409186355652 0
0.146480952128632 0.00904090361791042 0
0.154250601532398 0.00904088778232776 0
0.162020250936164 0.00904087114603081 0
0.169789900339931 0.00904085375009441 0
0.177559549743697 0.00904083562746144 0
0.185329199147463 0.00904081678837484 0
0.19309884855123 0.00904079723538749 0
0.200868497954996 0.00904077698530364 0
0.208638147358762 0.00904075608386239 0
0.216407796762529 0.00904073457561032 0
0.224177446166295 0.00904071248079192 0
0.231947095570061 0.00904068981591707 0
0.239716744973828 0.0090406666191938 0
0.247486394377594 0.00904064294990523 0
0.25525604378136 0.0090406188667447 0
0.263025693185127 0.00904059441151483 0
0.270795342588893 0.00904056961791781 0
0.278564991992659 0.00904054453885798 0
0.286334641396426 0.00904051925811257 0
0.294104290800192 0.00904049386518951 0
0.301873940203958 0.00904046842988749 0
0.309643589607725 0.00904044300214039 0
0.317413239011491 0.00904041763907235 0
0.325182888415257 0.00904039242379593 0
0.332952537819024 0.00904036744922788 0
0.34072218722279 0.00904034279201864 0
0.348491836626556 0.00904031851966979 0
0.356261486030323 0.00904029471332989 0
0.364031135434089 0.0090402714806036 0
0.371800784837856 0.00904024893506434 0
0.379570434241622 0.00904022717291949 0
0.387340083645388 0.00904020626554464 0
0.395109733049154 0.00904018627857454 0
0.402879382452921 0.00904016729816058 0
0.410649031856687 0.0090401494176675 0
0.418418681260454 0.00904013272259275 0
0.42618833066422 0.00904011728031506 0
0.433957980067986 0.0090401031527247 0
0.441727629471752 0.00904009040701833 0
0.449497278875519 0.00904007910733826 0
0.457266928279285 0.00904006931341327 0
0.465036577683052 0.00904006107412472 0
0.472806227086818 0.00904005442411193 0
0.480575876490584 0.0090400493953779 0
0.488345525894351 0.00904004601582655 0
0.496115175298117 0.00904004430293078 0
0.503884824701883 0.00904004426403095 0
0.511654474105649 0.00904004589205296 0
0.519424123509416 0.00904004916886033 0
0.527193772913182 0.0090400540770025 0
0.534963422316949 0.0090400606060777 0
0.542733071720715 0.00904006874233319 0
0.550502721124481 0.00904007845106059 0
0.558272370528248 0.00904008967822163 0
0.566042019932014 0.0090401023568475 0
0.57381166933578 0.00904011642293858 0
0.581581318739546 0.00904013181248169 0
0.589350968143313 0.00904014845188974 0
0.597120617547079 0.00904016626057715 0
0.604890266950846 0.00904018515164741 0
0.612659916354612 0.00904020504726417 0
0.620429565758378 0.00904022587561843 0
0.628199215162144 0.0090402475608072 0
0.635968864565911 0.00904027001507554 0
0.643738513969677 0.0090402931399691 0
0.651508163373444 0.00904031684166524 0
0.65927781277721 0.00904034103740295 0
0.667047462180976 0.00904036564942181 0
0.674817111584743 0.00904039058836844 0
0.682586760988509 0.00904041575630345 0
0.690356410392275 0.00904044106578934 0
0.698126059796041 0.00904046645177378 0
0.705895709199808 0.00904049186172272 0
0.713665358603574 0.00904051723140674 0
0.721435008007341 0.00904054247603918 0
0.729204657411107 0.00904056751158396 0
0.736974306814873 0.00904059227470772 0
0.74474395621864 0.00904061671233685 0
0.752513605622406 0.00904064076856701 0
0.760283255026172 0.00904066438779869 0
0.768052904429938 0.00904068752598016 0
0.775822553833705 0.00904071015540808 0
0.783592203237471 0.00904073224834833 0
0.791361852641238 0.00904075376266214 0
0.799131502045004 0.00904077465019812 0
0.80690115144877 0.00904079487400071 0
0.814670800852537 0.00904081441483534 0
0.822440450256303 0.00904083325875711 0
0.830210099660069 0.00904085138654074 0
0.837979749063836 0.00904086877664033 0
0.845749398467602 0.00904088541004862 0
0.853519047871368 0.00904090126634724 0
0.861288697275135 0.00904091632086942 0
0.869058346678901 0.00904093055563701 0
0.876827996082667 0.0090409439677678 0
0.884597645486433 0.00904095655975909 0
0.8923672948902 0.00904096832970864 0
[...]
      <PointData Scalars="PressureField">
        <DataArray type="Float64" Name="PressureField" format="ascii">
4.05636896191868 
4.05627136979481 
4.05605058826746 
4.05575010803871 
4.05532257366519 
4.0548176594693 
4.05419395836075 
4.05348175194547 
4.05263599487251 
4.05170368152818 
4.0506652821244 
4.0495244895861 
4.04829206877377 
4.04693768636522 
4.04549692219217 
4.04394469010568 
4.04229883282455 
4.04055123607421 
4.03871551379445 
4.03674891137678 
4.03471150071599 
4.03257625515129 
4.03035810200673 
4.0280180597654 
4.02563778612053 
4.02312617839971 
4.02055492539869 
4.01789929634557 
4.01518082148297 
4.01238710533942 
4.00951657068926 
4.00661170732199 
4.0036341395735 
4.00062806624345 
3.99754857705545 
3.99445425130892 
3.99132789610987 
3.98820201350462 
3.98503735063246 
3.98191748162817 
3.97875201717356 
3.97564701980225 
3.97255647031888 
3.96950314269535 
3.96649473703155 
3.96356267729678 
3.9606941722554 
3.95789702054576 
3.95520982080841 
3.95261987676641 
3.95014973505885 
3.94781828032248 
3.94562127979076 
3.94352995216121 
3.94162053108818 
3.93987945030381 
3.93830769674247 
3.93691518921719 
3.93570967456678 
3.93470431104629 
3.93389067105061 
3.93329278056046 
3.93286499759665 
3.93267582705497 
3.9326778026935 
3.93290601853656 
3.93332390253165 
3.93395796150614 
3.93478243086369 
3.93581678349806 
3.93703019392631 
3.93843910320843 
3.9400320103271 
3.94180720367985 
3.94371841325127 
3.94579171338304 
3.94802214072035 
3.95037092936643 
3.95287158992838 
3.95546407552897 
3.95819204837596 
3.96096577993079 
3.96386361090998 
3.96679834146204 
3.96982569341966 
3.9728678812653 
3.97599581066382 
3.97910254971357 
3.98227404477313 
3.98541459221022 
3.98857348585039 
3.99171101860181 
3.99484587388595 
3.99794858004332 
4.00100717333923 
4.00404230763726 
4.00700599942007 
4.00994849005642 
4.01279873401203 
4.0156021969794 
4.01833495818053 
4.02099062020737 
4.02356925281408 
4.02605303171875 
4.02846808321504 
4.03079255854675 
4.03301106550224 
4.03517047187761 
4.03718786361218 
4.03915213508994 
4.04098662280727 
4.04276873439819 
4.04439090563236 
4.04596404401808 
4.04737779231392 
4.04875556445837 
4.04996115738718 
4.05112986891348 
4.05214807443921 
4.05310399397821 
4.05391199525761 
4.05464845617436 
4.05526597116395 
4.05579541506228 
4.05619476291028 
4.05651082711446 
4.05671373801726 
4.05682813641136 
4.05647822119614 
4.05636137731416 
4.05617807875371 
4.05583006467749 
4.05545482808038 
4.05489834574441 
4.05430927336629 
4.05356198711218 
4.05274588975628 
4.05180393836836 
4.05077187800504 
4.04962753730683 
4.0483878013205 
4.04704626624312 
4.04558935268661 
4.04406085789374 
4.04238268745369 
4.0406613429484 
4.03878954109167 
4.03686743552109 
4.0347937061734 
4.03268791072671 
4.03042473346973 
4.02813073742468 
4.02569357598703 
4.023217472606 
4.02062880039272 
4.01797940037397 
4.01526591401748 
4.01243240213559 
4.00959911346544 
4.00664184818337 
4.00369464195688 
4.00064274222375 
3.99758915349153 
3.99447136106319 
3.99136316029063 
3.98820361501377 
3.98506720673598 
3.98186896067388 
3.97878248387317 
3.97561162044318 
3.97250281587219 
3.96945490878305 
3.96644276754985 
3.96347769873225 
3.96059707825249 
3.9578252034379 
3.95509870478068 
3.95250453444127 
3.95001501921201 
3.94766078575916 
3.94546817342457 
3.94338463483916 
3.94144751342652 
3.9397077393093 
3.93812424842311 
3.93673163541357 
3.93551624186029 
3.93449884074891 
3.93368684374429 
3.93307406220994 
3.93267893798994 
3.93244349217135 
3.93249111304553 
3.93267477244635 
3.93314474759132 
3.93373080884853 
3.93460099287031 
3.93561527183862 
3.9368526507423 
3.93825922017124 
3.93984653660071 
3.94164358838597 
3.94354023720433 
3.94565983849813 
3.94786738492562 
3.95026669051463 
3.95273835197449 
3.95538962031372 
3.95805182784133 
3.96090783493233 
3.96376134557948 
3.96676346263762 
3.96975694983662 
3.97287468367953 
3.97592046126851 
3.97911219546327 
3.98224444713706 
3.98543212008932 
3.9885629696042 
3.99174248714484 
3.99487490928158 
3.99796654830716 
4.00106611462544 
4.00407336856005 
4.007077756873 
4.00998748158069 
4.01287562323142 
4.01566289451867 
4.01841680536983 
4.02105772536869 
4.02365587423595 
4.02614641122596 
4.02856414653118 
4.03086556798915 
4.03313431826484 
4.03522469112373 
4.03733071282511 
4.0392005888436 
4.04113729804466 
4.04280437915591 
4.04454969122358 
4.04600001204369 
4.04754294323052 
4.04880916090726 
4.05012790148703 
4.05119500450888 
4.05228778387134 
4.05316535286555 
4.0540418767134 
4.05472754878669 
4.05539245706897 
4.05588580558122 
4.05631965167736 
4.05660531590864 
4.05682690838569 
4.05692534389521 
4.05667375180935 
4.05659661888613 
4.05635015108524 
4.05609426291594 
4.05561756049918 
4.05515366666325 
4.05447659015239 
4.05378683121981 
4.05293431340269 
4.05202598727259 
4.05098203569558 
4.04983916282432 
4.04858955420482 
4.04723920155914 
4.04581002144921 
4.04422946813233 
4.04262229493791 
4.04082606214843 
4.03902188862346 
4.03702561620377 
4.03501793552123 
4.03283212504532 
4.03064845496597 
4.02827001397802 
4.02590090636472 
4.02335850092375 
4.0208038429731 
4.01813323327296 
4.01538064319292 
4.01260344731934 
4.00969125508648 
4.00677847527195 
4.00375286384183 
4.00074846695139 
3.99763779220266 
3.99455078695792 
3.99138264521653 
3.98824566070881 
3.98503919848889 
3.98191054028118 
3.97867346401173 
3.97557667862818 
3.97243593887422 
3.96934835023372 
3.96630140569448 
3.96335238143801 
3.96044031910589 
3.95760376782263 
3.95490868480397 
3.95226933817732 
3.94977659674632 
3.9473734249893 
3.94516439585174 
3.94305546799096 
3.94114491394438 
3.93934115430943 
3.93777387898142 
3.93634972226214 
3.93514424286997 
3.93410198738241 
3.93327508221808 
3.9326762412864 
3.93222910358025 
3.93207416772194 
3.93202814975692 
3.93230785265899 
3.93268175001562 
3.93337743325008 
3.93417636326111 
3.9352431962391 
3.93645789398903 
3.93789609148255 
3.93951810752564 
3.94128673328438 
3.94326240227474 
3.94534421154868 
3.94764253294391 
3.94997015657623 
3.95254906218124 
3.95512045477154 
3.95792379058506 
3.96068747284458 
3.96366652878444 
3.96660332570526 
3.96970869227758 
3.97272151355189 
3.97594498445225 
3.97902786315005 
3.98225213303589 
3.98539593479489 
3.98863073380665 
3.99176172310888 
3.99492242220198 
3.99806090159024 
4.00112097614074 
4.00419617764587 
4.00716452112886 
4.01013749627502 
4.0129920441323 
4.01583296869533 
4.01854968049655 
4.02122337779412 
4.02380115928354 
4.02631526139726 
4.02871457420447 
4.03108987892152 
4.03326210861186 
4.03549384045052 
4.03743667349557 
4.03950763537079 
4.04122871107747 
4.04311861485696 
4.04462899558591 
4.04632570689239 
4.04763136372902 
4.04911636579214 
4.05023602583011 
4.05148215232601 
4.05241697682803 
4.0534457158486 
4.0541931073994 
4.05499112619458 
4.05555028463673 
4.0561214062405 
4.05649253356396 
4.05684010779811 
4.05701783525682 
4.05713983537345 
4.05700030387006 
4.05686808378403 
4.05670868015706 
4.05632525886142 
4.05599476085407 
4.05540121265429 
4.0548450526914 
4.05406411574147 
4.05326813200359 
4.05231327302975 
4.0512870403037 
4.0501562707987 
4.04889941758737 
4.04758465044116 
4.04609325182817 
4.04458598114751 
4.04286795588864 
4.04117774694879 
4.0392523890736 
4.0373720589287 
4.03525786161206 
4.03317161539188 
4.03085348140185 
4.02860216459822 
4.02609316800688 
4.02364672717329 
4.02101377875525 
4.01835589187646 
4.01561057304624 
4.01275526914279 
4.00990689810952 
4.0069052978621 
4.00394720714315 
4.00083035717612 
3.99778607492637 
3.99458886209141 
3.99146705589329 
3.98822861458591 
3.98508237108324 
3.98181391797095 
3.97869680889232 
3.97545812741962 
3.97232898313625 
3.96919146604004 
3.96614547484945 
3.96311048629013 
3.96020151963429 
3.95733839973132 
3.95457798361586 
3.95193494129765 
3.94937912969617 
3.94700411809288 
3.94468726184608 
3.94261256724045 
3.9406020834317 
3.93885650034293 
3.9372058382925 
3.93579550026957 
3.93453805736863 
3.93351777408036 
3.93268037096796 
3.93203100808868 
3.93164653836441 
3.93140191200324 
3.93146090643459 
3.93161255422548 
3.93211767575566 
3.93270886167572 
3.93361989742051 
3.93462696181337 
3.935920752637 
3.93736108219995 
3.93898553686431 
3.94081696353958 
3.9427669172806 
3.94494214393728 
3.94715696854589 
3.94965828520351 
3.95213394002579 
3.95487619394998 
3.95757113676026 
3.96052216091734 
3.96339280101736 
3.96647800427895 
3.96949523632218 
3.9727101634274 
3.97575881769234 
3.97904934232382 
3.98217799268613 
3.98544724018269 
3.98860721868029 
3.99185028955954 
3.99500458952906 
3.99814122775961 
4.00128889712875 
4.00431474550347 
4.00735776532012 
4.01028035036237 
4.01321904056588 
4.01600225983399 
4.01880251166472 
4.02145583918358 
4.024077643092 
4.02655678848714 
4.02902912252702 
4.03128557213844 
4.03363481667766 
4.03566139097515 
4.03785835756476 
4.03966214754018 
4.04167818376888 
4.0432591926383 
4.04510120878207 
4.04645994762127 
4.04809702573377 
4.04926401233546 
4.05067694511279 
4.05167041723037 
4.05284689294011 
4.05365818416808 
4.05459634578228 
4.05522117180799 
4.05592654368122 
4.05637127827019 
4.05685405543269 
4.05711784374622 
4.05735824128219 
4.05743872063068 
4.05740027013316 
4.05732773755453 
4.05705117233113 
4.05682498104706 
4.05632369428762 
4.05589770518265 
4.05519461903258 
4.05452984306383 
4.05365380183928 
4.05274336456397 
4.05169955065001 
4.05056696719457 
4.04932350295857 
4.04796713044071 
4.046536887187 
4.04492307845503 
4.04333714873147 
4.04149363598033 
4.03971479108595 
4.03769117751152 
4.03570918506915 
4.03346247273629 
4.03130532691128 
4.02887099232479 
4.02651192277557 
4.0239260525836 
4.02137035093438 
4.01864315710712 
4.01587754952064 
4.01305174025858 
4.01011036635383 
4.00718673606452 
4.00407574876939 
4.00106058025072 
3.99785990497052 
3.9947584252999 
3.99149660732593 
3.9883128456028 
3.98504326530396 
3.98186144888036 
3.9785465819323 
3.97538333068586 
3.97214343379658 
3.96901505709157 
3.96587782832279 
3.96287031301661 
3.95984751098936 
3.95696848738544 
3.95416816484357 
3.95145600971439 
3.94890651228208 
3.94640323740833 
3.9441431364185 
3.94192423277113 
3.93999062214783 
3.93811176154556 
3.93652487062688 
3.93500903887859 
3.93379066408795 
3.93269812703591 
3.93185171035655 
3.93121039955281 
3.93075851860925 
3.93060720186137 
3.9305451921672 
3.93084654750682 
3.93121877048439 
3.93195698335245 
3.9327590625367 
3.93389614326525 
3.93514362211966 
3.93663130068564 
3.93830638349073 
3.94010663082077 
3.94216704184748 
3.94429533664455 
3.94669020767185 
3.94907640324953 
3.95173897472528 
3.95438342008289 
3.95727980462007 
3.96012000325312 
3.96317494875168 
3.96617520861999 
3.96937340102285 
3.97244203611419 
3.97576442165665 
3.97889218971231 
3.98221736680143 
3.98539889156338 
3.9887032782114 
3.99189932596659 
3.99511920060046 
3.99830220362759 
4.00141344396071 
4.00454023942248 
4.00756296585315 
4.01056798097633 
4.01343378591027 
4.01634662142336 
4.0190589182716 
4.02179644928267 
4.0243603467964 
4.02695532670912 
4.02930706126171 
4.03176489134847 
4.03387973985529 
4.03619153488157 
4.03808071354858 
4.04023496894743 
4.04189480632329 
4.04385677231112 
4.04529987385761 
4.04707875167562 
4.04830945100037 
4.04986544857419 
4.05092101153173 
4.05223752392173 
4.05311662101403 
4.05419755463451 
4.0548898125598 
4.05573801190493 
4.05625515857514 
4.05685989092832 
4.05720131654957 
4.05758810797329 
4.05774046861625 
4.05786646873195 
4.05793495389691 
4.05779411703624 
4.05764772586211 
4.05725292190009 
4.0569342902029 
4.05632171006904 
4.05578091978105 
4.05499447222291 
4.05421309573157 
4.05325207002292 
4.05222679445964 
4.05108920088305 
4.04981456431283 
4.04850727058937 
4.04699226902185 
4.04550187740952 
4.04376265988639 
4.04208614079887 
4.04013377297295 
4.0382472401349 
4.03609714274555 
4.03402534842159 
4.03166124104798 
4.02942277746464 
4.02685530666313 
4.02441233381375 
4.02171281742223 
4.01905299453784 
4.01622738852725 
4.01336094530331 
4.01046001795055 
4.00739504855517 
4.00440654409391 
4.00119807639056 
3.9981161155974 
3.99483758212962 
3.99164534854081 
3.98833605642101 
3.98511243125717 
3.98174530373525 
3.97852156163281 
3.97519378728379 
3.97198759590422 
3.96874308786929 
3.96562090048487 
3.96246225929477 
3.95947367601397 
3.95648082213666 
3.95362218834059 
3.95089747300671 
3.94821295340567 
3.94577962753372 
3.94332703640775 
3.94122078298354 
3.93909205625224 
3.93729561882027 
3.93553074948483 
3.93411146609033 
3.93276313604921 
3.93170434681428 
3.93081840829 
3.93015311453228 
3.9297497289487 
3.92948573270672 
3.92955308592813 
3.92971667325347 
3.93024469509054 
3.93084500144457 
3.93181558018418 
3.93285106861568 
3.93422323857529 
3.93571025423476 
3.93740714416283 
3.93929756523426 
3.94134800607065 
3.94360119279668 
3.94593312729118 
3.94853715836689 
3.95110213544604 
3.95394358179908 
3.95672846990394 
3.95977187557519 
3.96276008360695 
3.96593426189968 
3.96904020700326 
3.97236321456356 
3.97551826647129 
3.97891426875559 
3.98210408022421 
3.98548775623196 
3.98872407836851 
3.99201072179235 
3.9952617267026 
3.99846943885608 
4.00166039132853 
4.00476390931582 
4.00787547050156 
4.01083991315938 
4.01383404195754 
4.01662282882822 
4.01950152008331 
4.02215721817949 
4.02484775805184 
4.02729321519448 
4.02987492950141 
4.03208072936297 
4.03451065232218 
4.03649207004957 
4.03876353381091 
4.04052853696308 
4.04260074821489 
4.04413936149137 
4.04602958812814 
4.04735975283136 
4.04904416562291 
4.05017718584247 
4.05162811098197 
4.05258312511929 
4.05379602345643 
4.0545664078515 
4.05554771451352 
4.05614326698875 
4.05687905968476 
4.05729164006138 
4.05779502517529 
4.05804048269266 
4.05829575444832 
4.05836719524147 
4.05852951451217 
4.05845749549081 
4.05820245126145 
4.05797784052332 
4.05747149650714 
4.05703909400901 
4.05632994362146 
4.05567227937161 
4.05479403003162 
4.05389143655027 
4.05283327227966 
4.05169735199415 
4.05045709708147 
4.04907828778197 
4.0476634071609 
4.04603305598507 
4.04446198293502 
4.04259199413672 
4.04081961121072 
4.038744673433 
4.03677041541565 
4.03448535675936 
4.03232942624324 
4.02983719894538 
4.02748831983478 
4.02483620411231 
4.02226212978426 
4.01946962998029 
4.01669432183327 
4.01378893967479 
4.01077521558151 
4.00780962411704 
4.00461970044602 
4.00155047058068 
3.99824993679413 
3.99507326149084 
3.99171428057812 
3.98845826186274 
3.98505694042079 
3.98177090258433 
3.97835819434609 
3.97508400669826 
3.97172692757493 
3.96849864679094 
3.96520664029398 
3.96208302080947 
3.95892808386803 
3.95594418281692 
3.95300542886625 
3.95015593846285 
3.94751061446858 
3.9448627784081 
3.94252237201657 
3.94017503230351 
3.93816353651934 
3.93614953474769 
3.93449700486864 
3.93288319809404 
3.93161652284267 
3.93045815434252 
3.92957491955446 
3.92890416646354 
3.92841848307272 
3.92825032128373 
3.92819763914499 
3.92851705340889 
3.92890213509852 
3.92968414692836 
3.93051335081977 
3.93173927090522 
3.93302148231559 
3.93460704355616 
3.93635422146082 
3.9382785053366 
3.94041716071221 
3.94267514009228 
3.94515314139436 
3.94768890653742 
3.95046699419749 
3.95322075715268 
3.95624349692032 
3.95922628168692 
3.96239845929749 
3.96552891709793 
3.9688318484103 
3.97204352578007 
3.9754654032635 
3.97871117887183 
3.98214819970256 
3.9854404995866 
3.98881914038679 
3.99214032027137 
3.99544442897645 
3.99870783409228 
4.00189426902932 
4.00510166233323 
4.00816497747878 
4.01126419845136 
4.01416125388097 
4.01715848416943 
4.01987679817205 
4.02272729912016 
4.02525444824065 
4.02795847360015 
4.03024899641127 
4.03281129695648 
4.03488297031738 
4.03728232487987 
4.03913219761907 
4.04133574812751 
4.04297472148361 
4.04497531987486 
4.04640667120636 
4.04821174163086 
4.04944156416565 
4.05100529778187 
4.05205127817089 
4.05338049844866 
4.05424403531957 
4.05535111473587 
4.05603452125386 
4.05689959384896 
4.05739967624227 
4.05800901420081 
4.05833413316056 
4.0587196890789 
4.05887620859012 
4.05900689315234 
4.05928062125359 
4.05914620684655 
4.05898912940071 
4.05861633351113 
4.05827390143089 
4.05767848759927 
4.05712869129897 
4.05634367827232 
4.05556340896637 
4.05459518376715 
4.05357681734513 
4.05242884080618 
4.05116953799758 
4.04983780365148 
4.04832386257287 
4.04683014852167 
4.04507746404135 
4.04339165604548 
4.04142299989176 
4.03953051075925 
4.03734642299021 
4.0352664136357 
4.03285577242138 
4.03058856706861 
4.02799060473465 
4.02552342838027 
4.0227642441661 
4.02007472593333 
4.0171691968298 
4.0142557190515 
4.01127661504695 
4.00813900928144 
4.00506882856211 
4.0017708391159 
3.99859048807413 
3.99521526424712 
3.99192969162012 
3.98848933563036 
3.98515926804691 
3.98166574170613 
3.97832165395373 
3.97484654089137 
3.97152335912794 
3.96810858802663 
3.96483966032526 
3.96153549327979 
3.95839157107437 
3.95525379158982 
3.95224511823594 
3.94937051419609 
3.94654288694993 
3.94397930273613 
3.94140262419699 
3.93914361207466 
3.93687823523585 
3.93499851715253 
3.93309596808523 
3.93160290707272 
3.93016240208523 
3.92904640365529 
3.92809687337563 
3.92738726438001 
3.92695303904226 
3.92666218052153 
3.92674641121057 
3.92691620409731 
3.92749027841968 
3.92811398722092 
3.92916675716506 
3.93024537967483 
3.93171901912692 
3.93327112919115 
3.93511354687975 
3.93710782288007 
3.93929083241862 
3.94164875829022 
3.94414430702802 
3.94684144837741 
3.94957170019782 
3.95256915003615 
3.95551622978994 
3.95870124656836 
3.96184367289317 
3.96516898254851 
3.96842761931363 
3.97187976884914 
3.97519683409672 
3.97869905696934 
3.98204063449713 
3.98551778321754 
3.98890129851669 
3.99229803324809 
3.99564247906645 
3.9989621322537 
4.00225123741003 
4.00542989530322 
4.00863160700152 
4.0116427822423 
4.01473385626046 
4.01756804429575 
4.02053749816252 
4.02316121767261 
4.02598542582454 
4.02840240927821 
4.0310760962458 
4.0332602752284 
4.03578231820542 
4.03773149987961 
4.04005468546933 
4.0417918875353 
4.04391186067352 
4.04545688947859 
4.04735705077133 
4.04870284428885 
4.05038256962757 
4.05153592843042 
4.05297621754467 
4.05393062850794 
4.05514229949384 
4.05591747270885 
4.05688585541938 
4.05750402993226 
4.05821540124705 
4.05864950092931 
4.0591430815444 
4.05938435492879 
4.05964450883768 
4.05971530931485 
4.0600985454127 
4.06000633553703 
4.0597656687661 
4.05950898061991 
4.05903202217623 
4.05858404717655 
4.05789819604848 
4.05722922088124 
4.05635464463659 
4.05544835898166 
4.05438910359048 
4.0532517302414 
4.05201087478192 
4.05062174206774 
4.04921827101961 
4.047571625143 
4.04598913594586 
4.04410140435588 
4.04231869728389 
4.0402160032267 
4.03823491204374 
4.03591171876475 
4.03374540299713 
4.03119084228372 
4.02882778226915 
4.02610129393716 
4.02349398501597 
4.02063098086768 
4.01780619188686 
4.01482283786754 
4.0117515478318 
4.00868271184268 
4.00540639539826 
4.00223163529638 
3.99883200860214 
3.99553059058268 
3.99204270640232 
3.98867156299087 
3.98511315315731 
3.98170829106416 
3.97812778877451 
3.97470056026811 
3.97117401471872 
3.96777334057789 
3.96433063616203 
3.96100781883865 
3.95770573580709 
3.95452532497175 
3.95141608163118 
3.94838584189002 
3.94556321853788 
3.94275075505835 
3.94026436026419 
3.93775594975535 
3.93560885115029 
3.93344041920368 
3.93170154571077 
3.92996219005094 
3.92858126227634 
3.92735404939947 
3.92638211462785 
3.9256749223118 
3.92515572719146 
3.92497497981152 
3.92490965576856 
3.9252583405085 
3.92565677446338 
3.92651863142888 
3.92738498456721 
3.92872182797013 
3.9300675829513 
3.93182084210732 
3.93363938593068 
3.9357504074665 
3.93798282014429 
3.94044367090594 
3.94305263110773 
3.94577466101464 
3.94869475931954 
3.95164752216032 
3.95484340138978 
3.95797206927634 
3.96134552995122 
3.96464673523008 
3.96812604272789 
3.97150067516017 