<?xml version="1.0"?>
<VTKFile type="StructuredGrid" version="0.1" byte_order="LittleEndian">
  <StructuredGrid WholeExtent="0 255 0 255 0 0">
    <Piece Extent="0 255 0 255 0 0">
      <CellData></CellData>
      <Points>
        <DataArray type="Float64" NumberOfComponents="3" format="ascii">
0.00331946640813808 0.000586820059664287 0
0.007215000004937 0.000586820043714395 0
0.0111105336017359 0.00058682001090135 0
0.0150060671985348 0.00058681996033029 0
0.0189016007953337 0.000586819892062092 0
0.0227971343921327 0.000586819806920943 0
0.0266926679889316 0.000586819705600064 0
0.0305882015857305 0.000586819588003205 0
0.0344837351825294 0.000586819453611981 0
0.0383792687793283 0.000586819302348772 0
0.0422748023761273 0.000586819134714835 0
0.0461703359729262 0.000586818950947572 0
0.0500658695697251 0.000586818750505967 0
0.053961403166524 0.000586818532659053 0
0.0578569367633229 0.000586818297388141 0
0.0617524703601218 0.000586818045472447 0
0.0656480039569207 0.000586817777702854 0
0.0695435375537197 0.000586817493890422 0
0.0734390711505186 0.000586817193026636 0
0.0773346047473175 0.000586816874231903 0
0.0812301383441164 0.000586816537498858 0
0.0851256719409153 0.00058681618373599 0
0.0890212055377143 0.000586815813800799 0
0.0929167391345132 0.000586815428092311 0
0.0968122727313121 0.00058681502674259 0
0.100707806328111 0.000586814609618414 0
0.10460333992491 0.000586814176328815 0
0.108498873521709 0.000586813726267419 0
0.112394407118508 0.000586813258950967 0
0.116289940715307 0.000586812774425706 0
0.120185474312106 0.000586812273309261 0
0.124081007908905 0.000586811756427947 0
0.127976541505703 0.000586811224099253 0
0.131872075102502 0.00058681067617041 0
0.135767608699301 0.000586810112392866 0
0.1396631422961 0.000586809532592466 0
0.143558675892899 0.000586808936547339 0
0.147454209489698 0.000586808323919822 0
0.151349743086497 0.000586807694823103 0
0.155245276683296 0.000586807050021887 0
0.159140810280095 0.000586806390489256 0
0.163036343876894 0.000586805716619788 0
0.166931877473693 0.000586805027817537 0
0.170827411070492 0.00058680432335674 0
0.17472294466729 0.000586803603401288 0
0.178618478264089 0.000586802868961446 0
0.182514011860888 0.000586802121159608 0
0.186409545457687 0.000586801360052023 0
0.190305079054486 0.000586800584736234 0
0.194200612651285 0.000586799794683851 0
0.198096146248084 0.000586798990447556 0
0.201991679844883 0.000586798173160253 0
0.205887213441682 0.000586797343681539 0
0.209782747038481 0.000586796502308536 0
0.21367828063528 0.000586795648894651 0
0.217573814232079 0.000586794783473451 0
0.221469347828877 0.000586793906563812 0
0.225364881425676 0.000586793018692055 0
0.229260415022475 0.000586792119934707 0
0.233155948619274 0.000586791209810679 0
0.237051482216073 0.000586790288261787 0
0.240947015812872 0.000586789356337875 0
0.244842549409671 0.000586788415481606 0
0.24873808300647 0.000586787466795701 0
0.252633616603269 0.00058678651068941 0
0.256529150200068 0.00058678554711304 0
0.260424683796867 0.000586784576214607 0
0.264320217393666 0.000586783598683076 0
0.268215750990464 0.000586782615372149 0
0.272111284587263 0.000586781626796738 0
0.276006818184062 0.00058678063317779 0
0.279902351780861 0.000586779634527459 0
0.28379788537766 0.000586778631108305 0
0.287693418974459 0.000586777623973165 0
0.291588952571258 0.000586776614786749 0
0.295484486168057 0.000586775605249602 0
0.299380019764856 0.000586774596004952 0
0.303275553361655 0.000586773586573985 0
0.307171086958454 0.000586772576340073 0
0.311066620555253 0.000586771565764932 0
0.314962154152051 0.000586770556775158 0
0.31885768774885 0.000586769551473979 0
0.322753221345649 0.000586768550951681 0
0.326648754942448 0.000586767555191038 0
0.330544288539247 0.000586766563971639 0
0.334439822136046 0.000586765578093955 0
0.338335355732845 0.000586764599078287 0
0.342230889329644 0.000586763628108024 0
0.346126422926443 0.000586762665478422 0
0.350021956523242 0.000586761711202139 0
0.353917490120041 0.000586760766208676 0
0.35781302371684 0.000586759832468319 0
0.361708557313638 0.00058675891199102 0
0.365604090910437 0.000586758005378377 0
0.369499624507236 0.000586757112105807 0
0.373395158104035 0.000586756231970463 0
0.377290691700834 0.000586755366280012 0
0.381186225297633 0.000586754517615677 0
0.385081758894432 0.000586753687767619 0
0.388977292491231 0.000586752876686386 0
0.39287282608803 0.00058675208351043 0
0.396768359684829 0.000586751308277133 0
0.400663893281628 0.000586750552623663 0
0.404559426878427 0.000586749818907968 0
0.408454960475225 0.000586749108607471 0
0.412350494072024 0.000586748421933565 0
0.416246027668823 0.000586747758892848 0
0.420141561265622 0.000586747120133808 0
0.424037094862421 0.000586746507037127 0
0.42793262845922 0.000586745920615376 0
0.431828162056019 0.000586745360810119 0
0.435723695652818 0.00058674482718694 0
0.439619229249617 0.000586744320163337 0
0.443514762846416 0.000586743841347631 0
0.447410296443215 0.000586743392471127 0
0.451305830040014 0.000586742974189025 0
0.455201363636813 0.000586742586069322 0
0.459096897233611 0.000586742227790751 0
0.46299243083041 0.000586741899897144 0
0.466887964427209 0.000586741603604287 0
0.470783498024008 0.000586741339820374 0
0.474679031620807 0.0005867411086491 0
0.478574565217606 0.000586740909812534 0
0.482470098814405 0.000586740743380399 0
0.486365632411204 0.00058674060983745 0
0.490261166008003 0.000586740509535261 0
0.494156699604802 0.000586740442477809 0
0.498052233201601 0.000586740408472131 0
0.501947766798399 0.000586740407534623 0
0.505843300395198 0.000586740439796531 0
0.509738833991997 0.000586740505255569 0
0.513634367588796 0.00058674060378289 0
0.517529901185595 0.000586740735290352 0
0.521425434782394 0.000586740899984372 0
0.525320968379193 0.000586741098001221 0
0.529216501975992 0.000586741328772802 0
0.533112035572791 0.000586741591150862 0
0.53700756916959 0.00058674188429369 0
0.540903102766389 0.000586742208287115 0
0.544798636363188 0.000586742563572886 0
0.548694169959987 0.000586742949847327 0
0.552589703556785 0.000586743365853313 0
0.556485237153584 0.000586743810436827 0
0.560380770750383 0.000586744283500863 0
0.564276304347182 0.000586744785867787 0
0.568171837943981 0.000586745317971657 0
0.57206737154078 0.000586745878711854 0
0.575962905137579 0.000586746465799357 0
0.579858438734378 0.00058674707744517 0
0.583753972331177 0.000586747713645197 0
0.587649505927976 0.000586748375306144 0
0.591545039524775 0.000586749062175157 0
0.595440573121574 0.000586749772211799 0
0.599336106718372 0.00058675050299394 0
0.603231640315171 0.000586751253578468 0
0.60712717391197 0.000586752024643683 0
0.611022707508769 0.000586752816721271 0
0.614918241105568 0.000586753628804869 0
0.618813774702367 0.000586754458474938 0
0.622709308299166 0.000586755303811529 0
0.626604841895965 0.000586756164629274 0
0.630500375492764 0.000586757041823051 0
0.634395909089563 0.00058675793551819 0
0.638291442686362 0.000586758844001404 0
0.64218697628316 0.000586759764661093 0
0.646082509879959 0.000586760695767497 0
0.649978043476758 0.000586761637180529 0
0.653873577073557 0.000586762589459723 0
0.657769110670356 0.000586763552255532 0
0.661664644267155 0.000586764523745441 0
0.665560177863954 0.000586765501968434 0
0.669455711460753 0.000586766486036307 0
0.673351245057552 0.000586767476193067 0
0.677246778654351 0.000586768472784737 0
0.68114231225115 0.000586769474946996 0
0.685037845847949 0.000586770480577604 0
0.688933379444748 0.000586771487818992 0
0.692828913041546 0.000586772496063143 0
0.696724446638345 0.000586773505573527 0
0.700619980235144 0.000586774516140249 0
0.704515513831943 0.000586775526344618 0
0.708411047428742 0.000586776534419493 0
0.712306581025541 0.000586777539596687 0
0.71620211462234 0.000586778542366196 0
0.720097648219139 0.000586779543497033 0
0.723993181815938 0.00058678054284928 0
0.727888715412737 0.000586781538899989 0
0.731784249009536 0.000586782529604045 0
0.735679782606334 0.000586783513475011 0
0.739575316203133 0.000586784490157888 0
0.743470849799932 0.000586785460113037 0
0.747366383396731 0.00058678642340047 0
0.75126191699353 0.000586787379414927 0
0.755157450590329 0.00058678832727327 0
0.759052984187128 0.000586789266145588 0
0.762948517783927 0.000586790195666495 0
0.766844051380726 0.000586791115541603 0
0.770739584977525 0.000586792025248817 0
0.774635118574324 0.000586792924311921 0
0.778530652171123 0.000586793812353325 0
0.782426185767922 0.000586794689396649 0
0.786321719364721 0.000586795555607176 0
0.790217252961519 0.000586796410536589 0
0.794112786558318 0.000586797253154718 0
0.798008320155117 0.000586798082358734 0
0.801903853751916 0.000586798897650727 0
0.805799387348715 0.000586799699401152 0
0.809694920945514 0.000586800488304573 0
0.813590454542313 0.000586801264479335 0
0.817485988139112 0.000586802027120582 0
0.821381521735911 0.000586802775028774 0
0.82527705533271 0.000586803507528891 0
0.829172588929509 0.000586804225071023 0
0.833068122526307 0.000586804928467273 0
0.836963656123106 0.000586805617960898 0
0.840859189719905 0.000586806293221183 0
0.844754723316704 0.000586806953362685 0
0.848650256913503 0.000586807597794669 0
0.852545790510302 0.000586808226400714 0
0.856441324107101 0.000586808838837628 0
0.8603368577039 0.000586809434864606 0
0.864232391300699 0.000586810014600228 0
0.868127924897498 0.000586810578675318 0
0.872023458494297 0.000586811127896042 0
0.875918992091095 0.000586811662242883 0
0.879814525687894 0.000586812180739405 0
0.883710059284693 0.000586812682159942 0
0.887605592881492 0.000586813165963428 0
0.891501126478291 0.000586813632738522 0
0.89539666007509 0.000586814083505241 0
0.899292193671889 0.000586814518648935 0
0.903187727268688 0.000586814937577804 0
0.907083260865487 0.000586815339604808 0
0.910978794462286 0.000586815724526541 0
0.914874328059085 0.000586816092599379 0
0.918769861655884 0.000586816444147168 0
0.922665395252683 0.000586816779120223 0
[...]
      <PointData Scalars="PressureField">
        <DataArray type="Float64" Name="PressureField" format="ascii">
4.05385950898914 
4.05383204301617 
4.05378780144816 
4.05371986711793 
4.05362003185299 
4.0534952711532 
4.05333673802656 
4.05315335359489 
4.05297605124203 
4.05274509976527 
4.05251243582092 
4.0522308536414 
4.05195186566433 
4.0516066739578 
4.05128141142564 
4.05088551308565 
4.05051428158634 
4.05007973170431 
4.04964452700253 
4.04915963291217 
4.0486995163571 
4.04815523882147 
4.04763221726686 
4.0470327209943 
4.04647105763218 
4.04583885612415 
4.04522342317967 
4.04453084232854 
4.04386807553286 
4.04314165228935 
4.0424117892733 
4.04163141876263 
4.04085964238687 
4.0400322965901 
4.03921955499315 
4.03835064030482 
4.03749322145461 
4.03657420425542 
4.03565860832451 
4.03469724611189 
4.03372730862315 
4.0327299296825 
4.03171562137815 
4.03067272502464 
4.02961922752705 
4.02852664728607 
4.02742564008912 
4.02630628257815 
4.02516998131113 
4.02398248143513 
4.02281154576725 
4.0215833748144 
4.02034160791647 
4.01909779851291 
4.01786975996243 
4.01657175947551 
4.01528489149602 
4.01397856653996 
4.01263374997612 
4.01128117289602 
4.0099139508524 
4.00853596512772 
4.00715547764045 
4.00574456726899 
4.00433882974505 
4.00289898120556 
4.00145895249504 
4.00000991642651 
3.99855945553486 
3.99708034534491 
3.99560986416655 
3.99411943838156 
3.9926431172551 
3.9911224646139 
3.98964789235011 
3.98813893995239 
3.9866608095264 
3.98513499797561 
3.9836489731777 
3.98211925948605 
3.98064137476413 
3.97914284551542 
3.97766138799404 
3.97618106409541 
3.97469627150461 
3.97322895357335 
3.97178375206037 
3.97032493608541 
3.96888887237786 
3.96746450290927 
3.96607010394509 
3.96469669603946 
3.96329431875905 
3.9619670762444 
3.96061385474556 
3.95933005137927 
3.9580184795209 
3.95678248790554 
3.95551862818094 
3.95432852426252 
3.95311765367661 
3.95199582225571 
3.95084671999381 
3.94977691925935 
3.94869412417579 
3.94770051095922 
3.94669284347145 
3.94576399593334 
3.94482886833892 
3.9439801921828 
3.94311221538045 
3.94234258381747 
3.94155371164966 
3.94087187899144 
3.94019441781755 
3.93959408082873 
3.93900012935011 
3.9384715849674 
3.93798004916844 
3.93754164825675 
3.93715249311887 
3.93682229840132 
3.93650522919116 
3.93627325199281 
3.93606862835011 
3.93592878760582 
3.9358389277716 
3.93577430674428 
3.93578240029944 
3.93581897067911 
3.93593884178948 
3.93608192461788 
3.9362813898062 
3.93652661387112 
3.93682873572452 
3.93717571694611 
3.93755616356701 
3.93801892563457 
3.93849482590819 
3.93904376526335 
3.93962031381981 
3.9402352142803 
3.94090290527912 
3.94162206909998 
3.9423756172717 
3.94316907988859 
3.9440109415928 
3.94489207016385 
3.94579710824612 
3.94674620357408 
3.94775505456579 
3.94877114573049 
3.94983739447589 
3.95093074349715 
3.95205093287435 
3.95321169858075 
3.95437659455913 
3.95560236189108 
3.95684353118444 
3.95810644924361 
3.95940273490143 
3.96071222097039 
3.96205225170766 
3.96338547171308 
3.96477602372369 
3.96616478214872 
3.96756532524922 
3.96898824872956 
3.97041862938828 
3.97185367356143 
3.97334463696267 
3.97479666044017 
3.97629193200696 
3.97775047428296 
3.97926830712932 
3.98074700189092 
3.98225181968256 
3.98375248941065 
3.98526414003746 
3.98674177510853 
3.98826641616674 
3.98974927807804 
3.99127421395088 
3.99274441491034 
3.99425917282643 
3.99571998932223 
3.99722039593658 
3.99867528294133 
4.00014617402897 
4.00157666011128 
4.00303737268787 
4.00445548214618 
4.00588330792469 
4.00728652732948 
4.0086784547872 
4.01003844407289 
4.01141653299858 
4.0127662034419 
4.0141045206932 
4.01542320955849 
4.01671983834321 
4.01798947473176 
4.01926482444402 
4.02050269555463 
4.02174289468625 
4.02293684648378 
4.02413716934214 
4.02528854448061 
4.02645351060806 
4.02756014123015 
4.02869071082035 
4.02975052797403 
4.03082099726397 
4.03185815554225 
4.03288879250787 
4.03386914119819 
4.0348470160622 
4.03579860041578 
4.03672760182269 
4.03762659448661 
4.03851054402506 
4.03936972735738 
4.04019679353472 
4.04100558311302 
4.04179476703726 
4.04256295646948 
4.04329528384519 
4.04400919565126 
4.04468512801033 
4.04535689648632 
4.04599798662595 
4.04661057353535 
4.04720765817215 
4.04777215631688 
4.04831991789379 
4.04883810686968 
4.04933286519685 
4.04980372968934 
4.05023953309907 
4.05066430473788 
4.05104728632648 
4.05142370910832 
4.05177076073914 
4.05207991494385 
4.05238756785026 
4.05265862637578 
4.05290736616412 
4.05313428232528 
4.05333696646729 
4.05349665735077 
4.05364483040286 
4.05376447828143 
4.05386595702058 
4.05394340218546 
4.05399109545807 
4.05402105357707 
4.05388321633477 
4.05385818862785 
4.05380478482378 
4.05374090154909 
4.05363443022745 
4.0535246920038 
4.0533633380324 
4.05319763324465 
4.05299597547059 
4.0527898597677 
4.05251056545964 
4.05227816334728 
4.05192898326376 
4.051675085106 
4.05126463578738 
4.05096669233584 
4.05049466171368 
4.05015097901265 
4.04961855248898 
4.04923179430813 
4.04866514077422 
4.04823334726842 
4.04760871279785 
4.04711479306108 
4.04645501154595 
4.04590424892562 
4.04519735201812 
4.04459863787318 
4.04383626002461 
4.04319991206515 
4.04239391902253 
4.04169960076327 
4.0408568412318 
4.04010354362188 
4.03921534268821 
4.03841744080324 
4.03747678103728 
4.03661862443062 
4.03564624508561 
4.03472963143137 
4.033728449036 
4.0327692897505 
4.03172822515718 
4.03071201444947 
4.02962610390817 
4.02856824613477 
4.02742610934278 
4.02633225474046 
4.02517564995408 
4.02401742815227 
4.02282335218972 
4.02161746184808 
4.0203559013824 
4.01916098896554 
4.01787377193383 
4.01660830722054 
4.01527283610748 
4.01399239335438 
4.01264123483907 
4.01129829680444 
4.00993940330128 
4.00855077368022 
4.00716911381466 
4.00576158929555 
4.00433820658038 
4.00291173427801 
4.00145776369633 
4.00003454063017 
3.99853845417663 
3.99711132293636 
3.9956004399088 
3.99415648924045 
3.9926175565122 
3.99116797764773 
3.98961883618138 
3.98816668730633 
3.98660787766012 
3.98517362175839 
3.98360620458744 
3.98216608573155 
3.980620716835 
3.97916178766826 
3.97764677616697 
3.97616854758173 
3.97467996328726 
3.97321923469125 
3.97176120356938 
3.97031494621347 
3.96888630985673 
3.96745706487427 
3.96605588526508 
3.96465694890304 
3.96329426542615 
3.96193187211165 
3.96062426187902 
3.95926968544481 
3.95802797193173 
3.95670264129535 
3.95553674481101 
3.95424998139496 
3.95314021695447 
3.95192143410445 
3.95086747957518 
3.94970646059311 
3.94871529373861 
3.94761774005759 
3.94669238683023 
3.94568219421438 
3.94482111906908 
3.94389085168299 
3.94311823237209 
3.94225998436738 
3.9415678876303 
3.94079435250028 
3.94018635866983 
3.93950812315296 
3.93897606549743 
3.93840355734849 
3.9379492692574 
3.93748201896283 
3.9371191851025 
3.93676476497235 
3.93646970655998 
3.93621934248848 
3.9360176595291 
3.93588108066611 
3.93576543582582 
3.93574249246027 
3.93572299434093 
3.93578851332909 
3.935881231586 
3.93603285450273 
3.93623709525534 
3.93646816595908 
3.93679487021607 
3.93711333487545 
3.93753972804996 
3.93795703289116 
3.93847402431471 
3.93896936388711 
3.93957496630772 
3.94015744327441 
3.94087946077918 
3.94155586264064 
3.94234971907791 
3.94312185711207 
3.94397364925592 
3.94485946929662 
3.94576306545771 
3.94672288109348 
3.9477009077163 
3.94874035901022 
3.94980315379926 
3.95089868503806 
3.95202624421548 
3.95317692419088 
3.95436239778752 
3.95557037583542 
3.95682175994581 
3.95808875061159 
3.95936493904721 
3.96069880737791 
3.9620064464568 
3.9633912411872 
3.96475295234934 
3.96615297116677 
3.96754920361406 
3.96897578284141 
3.97040238831154 
3.97186785504056 
3.97330535776997 
3.97481126736233 
3.97625413085943 
3.97777902352198 
3.97923151041869 
3.98077429240185 
3.98221055618704 
3.98377712990166 
3.98522675582079 
3.98678655313067 
3.98823223452639 
3.98979352910005 
3.99125203857486 
3.99279468547579 
3.99422455027547 
3.99576208267816 
3.99720268567154 
3.99870102026274 
4.00011772073759 
4.00161303961291 
4.00302298630123 
4.00448669113318 
4.00587756291891 
4.00730648232943 
4.0086830617348 
4.010093256524 
4.01142117086557 
4.01279270065314 
4.01410330100621 
4.01544001908568 
4.01672134165525 
4.01802233082149 
4.01927204162133 
4.02054040687458 
4.02174658782075 
4.02298532513397 
4.02413966340504 
4.02534107116773 
4.02644539224105 
4.02761015123109 
4.02866358236916 
4.02980374206318 
4.03080975270058 
4.03191700166927 
4.0328828877195 
4.03391649360797 
4.03486056588455 
4.03584197550653 
4.03674367141474 
4.03765584102024 
4.03852642401162 
4.03938546153346 
4.04022159492526 
4.04103694808202 
4.04182286721046 
4.04258050871443 
4.04332119932135 
4.0440264792812 
4.04471536522009 
4.04538148613322 
4.04601593601844 
4.04663990092549 
4.04723529166447 
4.04780483682391 
4.04834871324355 
4.04885694059677 
4.04935527394264 
4.04981477993689 
4.05026133370006 
4.05068019948303 
4.05107827608191 
4.05146385721311 
4.0517974876213 
4.05212391648147 
4.05240734472479 
4.05268643049133 
4.05292585953736 
4.05315470804814 
4.0533422312651 
4.0535260621656 
4.05367285736879 
4.05379674101494 
4.05390439296776 
4.05396091646019 
4.05402215909452 
4.05403147751155 
4.05393777325331 
4.05390452436491 
4.05386720725363 
4.05377857664057 
4.05369148293324 
4.05356035394391 
4.05343054234003 
4.05324036425034 
4.0530619031619 
4.05280451920941 
4.0526063252584 
4.05225794577596 
4.05205145254044 
4.05163068128754 
4.05139419767982 
4.05091338790144 
4.05064531645741 
4.05010813723728 
4.04979404694671 
4.04917977038399 
4.04882319315596 
4.04816065590298 
4.04775307302464 
4.04707254386569 
4.04659492067994 
4.04585865284127 
4.04533943762038 
4.04455764408242 
4.04398699886038 
4.04315425112494 
4.04252623141084 
4.04166641125054 
4.04097428499481 
4.04007518200527 
4.03933849991291 
4.03838801917441 
4.03759015560162 
4.03660421133017 
4.03574857026236 
4.03473811302482 
4.03382075903717 
4.03278154571974 
4.03180273105789 
4.03072150923578 
4.02970567649376 
4.02857486525287 
4.02751143916802 
4.02633972731227 
4.02522637355932 
4.02402531571441 
4.02287649320406 
4.02163277808536 
4.02045489489054 
4.01915528183213 
4.01794780102995 
4.01660156941122 
4.01534944629651 
4.01398891257615 
4.01268003345322 
4.0113247365063 
4.00996894188539 
4.00857966426883 
4.00719933151378 
4.00578337822118 
4.00437908748513 
4.00292003181667 
4.00150487546724 
4.0000191050145 
3.99859735066943 
3.99707336332609 
3.99564937268985 
3.99410043181341 
3.99268915776141 
3.99111974200209 
3.98970709296854 
3.98810918472316 
3.98669374376103 
3.98508458143887 
3.98368828556083 
3.98207917329409 
3.98066946084383 
3.9791022772675 
3.97765851959031 
3.97613562728715 
3.97467755631492 
3.97319720631186 
3.971747475136 
3.97028532746097 
3.96885035158246 
3.96743750450967 
3.96601276025988 
3.96463632584168 
3.96324073055352 
3.96192227128243 
3.96053859521091 
3.95927473048687 
3.95790585580822 
3.95673283117734 
3.95539830814239 
3.95429834283709 
3.95298332422582 
3.95195304842541 
3.95070522941267 
3.94973337852057 
3.94855059444397 
3.94763686990304 
3.9465404608131 
3.94567973964476 
3.94467507928684 
3.94388645942627 
3.94294351159828 
3.9422652672601 
3.94139959211541 
3.94079291408913 
3.94002532260106 
3.93947597409579 
3.93883265836724 
3.93835997013781 
3.93781912763275 
3.93742343568679 
3.93699857235992 
3.93666801261535 
3.93637282582476 
3.93612320388117 
3.93593807188957 
3.93575537224441 
3.93568412889095 
3.9356042842495 
3.93565112482971 
3.93567216042842 
3.93580131716334 
3.9359344716606 
3.936130065286 
3.93640341706 
3.93666354265114 
3.93705103700349 
3.9374026716728 
3.93788869215678 
3.93832737628232 
3.93891443997937 
3.93945313894574 
3.94012965525524 
3.94075013171646 
3.94151621399267 
3.94223576169952 
3.94306499310774 
3.94388894658003 
3.9447682891201 
3.94569958263846 
3.94664466417429 
3.94764391232523 
3.9486657858984 
3.94973203996496 
3.95083183531864 
3.95194707386376 
3.95313245970255 
3.95430231451777 
3.95553574857186 
3.95676389977021 
3.95803168372816 
3.95933782682611 
3.96062710240237 
3.96200249189819 
3.96332114483354 
3.96472898869982 
3.96609372210042 
3.9675203873616 
3.96894420649887 
3.9704156240864 
3.97181799600686 
3.97333991973967 
3.97474219518149 
3.97628763091535 
3.97771016549106 
3.97927034063014 
3.98069058988639 
3.98228443595962 
3.98370759004901 
3.98530624855653 
3.9867203924769 
3.98831767264848 
3.98972289534419 
3.99131348278637 
3.99272787860896 
3.99431710560878 
3.99570862160477 
3.99725925300743 
3.9986750112991 
4.0001975810162 
4.00158568909502 
4.00308907348713 
4.00447054842747 
4.0059328843351 
4.00730942382795 
4.00874178500222 
4.01008105254188 
4.01147965667188 
4.01279462171096 
4.01417100727627 
4.01545500694397 
4.0167902592638 
4.01803662929695 
4.01933914721584 
4.0205497875454 
4.02179815797581 
4.02297658101936 
4.0242103006363 
4.02532180491067 
4.02654175602829 
4.02760602820443 
4.02878902042919 
4.02979192879984 
4.03094083565181 
4.03188489775873 
4.03297983538346 
4.03390217063937 
4.03493518409639 
4.03584888760913 
4.0368122453061 
4.03769649558327 
4.03859044754643 
4.03943743230931 
4.0402680375952 
4.04107750263901 
4.04186320626963 
4.0426295257628 
4.04336299557982 
4.04407915054875 
4.04476480891834 
4.04543900336864 
4.04606487226196 
4.04670643187946 
4.04727420196664 
4.04785566549772 
4.04838323543183 
4.0489129331005 
4.04939599004439 
4.04987334812193 
4.05031103869742 
4.05073361917582 
4.05113299771613 
4.05150009751563 
4.05185937815069 
4.05215348724319 
4.05247194125292 
4.05272569567566 
4.05298785147564 
4.05318632183651 
4.05340679614805 
4.05356013186199 
4.05373733983333 
4.05384226394252 
4.05394215039773 
4.05401680402148 
4.05406246199336 
4.05409367064287 
4.05401069950482 
4.05399597340091 
4.05393120322658 
4.05386534986699 
4.05374080559521 
4.05364238919586 
4.05347464299882 
4.0533395695444 
4.05310308657804 
4.05293166579195 
4.05261114533844 
4.05242763348704 
4.05202180009686 
4.05183261712249 
4.05134839165083 
4.05112286463409 
4.05056915780573 
4.05031855416607 
4.04971069220477 
4.04941577023038 
4.04873069713886 
4.04840424653512 
4.04767494202528 
4.0472975454033 
4.04652734891365 
4.04606837468839 
4.04526391461234 
4.0447620509022 
4.04393277637601 
4.04334449457896 
4.04248288925222 
4.04185241014116 
4.04093895815199 
4.04025817055126 
4.03929773857431 
4.03855743796715 
4.03755390414066 
4.03676994911091 
4.03574240952234 
4.03488086602195 
4.03382841711344 
4.03290609844967 
4.03181636633328 
4.03083835481829 
4.02970357210048 
4.02869463910376 
4.02751951245648 
4.02645995569179 
4.02524852774384 
4.02413828109124 
4.02287944234738 
4.02174572304557 
4.02044584156019 
4.01927111236238 
4.01792722875289 
4.01671969997006 
4.01534885158896 
4.01408468568802 
4.01270851513005 
4.01138996227633 
4.01000806856794 
4.00864436456089 
4.00721184978002 
4.00582968057476 
4.00437458485387 
4.00299017299103 
4.00149446086674 
4.00009891015764 
3.99856294816114 
3.99716135804736 
3.99560364847538 
3.99420786688868 
3.99261499583464 
3.99123477282233 
3.98960719740734 
3.98821910501623 
3.98658378739741 
3.98519798145028 
3.98356632843576 
3.98218496230444 
3.98057157334679 
3.97914683719584 
3.97758787835039 
3.97614809809425 
3.97463730802276 
3.97318434998443 
3.97169787840167 
3.97025648615899 
3.96881512137114 
3.96738258737052 
3.96598529857688 
3.96454780935648 
3.96322065582935 
3.96180172462989 
3.96053830071983 
3.95912676329809 
3.95795204355499 
3.95654482079452 
3.95543729834639 
3.9540748408007 
3.95304130059822 
3.9517123097162 
3.95073675161948 
3.94948835643793 
3.94858087230064 
3.94741445398349 
3.94654368889129 
3.94546395001369 
3.94466468793728 
3.94365076471921 
3.94295406731819 
3.94201233416992 
3.94140427959084 
3.94054287557214 
3.93998641375068 
3.93925942518517 
3.93877017220099 
3.93816364919906 
3.93773609051642 
3.93723132538611 
3.93686820003589 
3.9364944763033 
3.93622386798913 
3.93598623543004 
3.93576715634243 
3.93565114577992 
3.93549696976806 
3.93551676111874 
3.9354546113944 
3.93556349363851 
3.9356175597201 
3.9357886608074 
3.93598769099084 
3.9362264406803 
3.93656148342801 
3.93685962857095 
3.93732221906095 
3.93768468265012 
3.93825252643521 
3.93871792665759 
3.93937000680277 
3.9399423782414 
3.9406823183701 
3.94133681481493 
3.94214409757798 
3.94292225081938 
3.94377007295829 
3.94465221507314 
3.94557485702968 
3.94655438368279 
3.94753810733209 
3.94857058839407 
3.94963863195621 
3.95072320575661 
3.95187141171543 
3.95300467125892 
3.9542397450386 
3.95543286310662 
3.95668776059968 
3.95796879012925 
3.95925101367918 
3.96060613515893 
3.96190443940515 
3.96330798758956 
3.96465055192898 
3.96607465388644 
3.96745836038059 
3.968919739441 
3.97033626666094 
3.97183681123259 
3.97322942726059 
3.97479320813902 
3.9761819955747 
3.97777961544983 
3.97916937120423 
3.98080000177583 
3.98218729913076 
3.9838040639527 
3.98519155167175 
3.98682113919852 
3.98820011228604 
3.98983205518171 
3.99122810144005 
3.99283998636017 
3.99423189859529 
3.99582330231365 
3.99721134447057 
3.99876811268864 
4.00015371985723 
4.00168876883059 
4.00305895441134 
4.00456841392736 
4.00592958043083 
4.0073810584088 
4.00874183100005 
4.01016918875379 
4.0114967616839 
4.01288546823559 
4.0141754052165 
4.01552689788274 
4.01679763138455 
4.01812757352095 
4.01935731177594 
4.02064018733365 
4.02182751550928 
4.02309000236147 
4.02422448951814 
4.02546387367123 
4.02652968801696 
4.02774183126544 
4.02874942523255 
4.02994975526431 
4.03090077390032 
4.03204911442164 
4.03295245841397 
4.03405721415149 
4.03495116642136 
4.03596514234455 
4.03684325395109 
4.03779106478428 
4.03863957833082 
4.03951302833126 
4.04034320910644 
4.04115300759745 
4.04192971542678 
4.04269501423532 
4.04344078851683 
4.04415382885762 
4.04484793748415 
4.04550260702249 
4.04616047241113 
4.0467569254061 
4.04736188936411 
4.04790157399365 
4.04847410897265 
4.04897109514348 
4.04948400163747 
4.04994454770628 
4.05039863786685 
4.05081360754671 
4.05120330311722 
4.05157427889383 
4.05189964550712 
4.05224835906191 
4.05251521061323 
4.05282413038974 
4.05304218325567 
4.0532951224822 
4.05345636686757 
4.05366386950008 
4.05378773838332 
4.05392921359895 
4.05401126871618 
4.05408562849769 
4.05414506814075 
4.05416214997918 
4.05410748926888 
4.05407689050235 
4.05404462336356 
4.05394830567582 
4.05387361349954 
4.05371913578157 
4.05361305736111 
4.05339854320991 
4.05324305185643 
4.05295883833717 
4.05279877463783 
4.05241992755256 
4.05225870815717 
4.05178123944211 
4.05160391414542 
4.0510487587528 
4.05084626620065 
4.05021899689946 
4.05001784979545 
4.04930680705044 
4.04905099701765 
4.04828462149344 
4.04797926736847 
4.04718442820962 
4.04681857380105 
4.04598623064541 
4.04554877977425 
4.04469066787085 
4.04419537306523 
4.04328999966334 
4.04272761293421 
4.04179904473711 
4.04117058500841 
4.04021108230343 
4.03952768559609 
4.03851901455176 
4.03778545863957 
4.03674575377022 
4.03594118611148 
4.03487299081413 
4.03401215285401 
4.03291259749369 
4.03197997219809 
4.03084845279699 
4.02987570011136 
4.02869577357468 
4.02768615794002 
4.02646080773548 
4.0253931522967 
4.02415269605245 
4.02303349518045 
4.02175362845151 
4.02062541433894 
4.01927356612507 
4.01806556151413 
4.01669605349401 
4.01548690758516 
4.01407504754638 
4.01281752463818 
4.01141196517203 
4.01009298873715 
4.00866961537129 
4.00730331181964 
4.00584227247707 
4.00447512127659 
4.00297772813699 
4.00160798330118 
4.00005496274472 
3.99868804564054 
3.99712127898855 
3.99573185153329 
3.99411921724679 
3.99274710757499 
3.9911173735619 
3.98974410889983 
3.98807970087032 
3.98672223063832 
3.98505309710373 
3.98370623780625 
3.98205001323625 
3.98066099996617 
3.9790480824921 
3.9776445301099 
3.97607147686106 
3.97463184456394 
3.97312374441288 
3.97165899920789 